      -----------------------------------------------------------      
     |                   =====================                   |     
     |                           x T B                           |     
     |                   =====================                   |     
     |                         S. Grimme                         |     
     |          Mulliken Center for Theoretical Chemistry        |     
     |                    University of Bonn                     |     
      -----------------------------------------------------------      

   * xtb version 6.5.1 (579679a) compiled by 'ehlert@majestix' on 2022-07-11

   xtb is free software: you can redistribute it and/or modify it under
   the terms of the GNU Lesser General Public License as published by
   the Free Software Foundation, either version 3 of the License, or
   (at your option) any later version.
   
   xtb is distributed in the hope that it will be useful,
   but WITHOUT ANY WARRANTY; without even the implied warranty of
   MERCHANTABILITY or FITNESS FOR A PARTICULAR PURPOSE.  See the
   GNU Lesser General Public License for more details.
   
   Cite this work as:
   * C. Bannwarth, E. Caldeweyher, S. Ehlert, A. Hansen, P. Pracht,
     J. Seibert, S. Spicher, S. Grimme, WIREs Comput. Mol. Sci., 2020, 11,
     e01493. DOI: 10.1002/wcms.1493
   
   for GFN2-xTB:
   * C. Bannwarth, S. Ehlert and S. Grimme., J. Chem. Theory Comput., 2019,
     15, 1652-1671. DOI: 10.1021/acs.jctc.8b01176
   for GFN1-xTB:
   * S. Grimme, C. Bannwarth, P. Shushkov, J. Chem. Theory Comput., 2017,
     13, 1989-2009. DOI: 10.1021/acs.jctc.7b00118
   for GFN0-xTB:
   * P. Pracht, E. Caldeweyher, S. Ehlert, S. Grimme, ChemRxiv, 2019, preprint.
     DOI: 10.26434/chemrxiv.8326202.v1
   for GFN-FF:
   * S. Spicher and S. Grimme, Angew. Chem. Int. Ed., 2020, 59, 15665-15673.
     DOI: 10.1002/anie.202004239
   
   for ALPB and GBSA implicit solvation:
   * S. Ehlert, M. Stahn, S. Spicher, S. Grimme, J. Chem. Theory Comput.,
     2021, 17, 4250-4261. DOI: 10.1021/acs.jctc.1c00471
   
   for DFT-D4:
   * E. Caldeweyher, C. Bannwarth and S. Grimme, J. Chem. Phys., 2017,
     147, 034112. DOI: 10.1063/1.4993215
   * E. Caldeweyher, S. Ehlert, A. Hansen, H. Neugebauer, S. Spicher,
     C. Bannwarth and S. Grimme, J. Chem. Phys., 2019, 150, 154122.
     DOI: 10.1063/1.5090222
   * E. Caldeweyher, J.-M. Mewes, S. Ehlert and S. Grimme, Phys. Chem. Chem. Phys.
     2020, 22, 8499-8512. DOI: 10.1039/D0CP00502A
   
   for sTDA-xTB:
   * S. Grimme and C. Bannwarth, J. Chem. Phys., 2016, 145, 054103.
     DOI: 10.1063/1.4959605
   
   in the mass-spec context:
   * V. Asgeirsson, C. Bauer and S. Grimme, Chem. Sci., 2017, 8, 4879.
     DOI: 10.1039/c7sc00601b
   * J. Koopman and S. Grimme, ACS Omega 2019, 4, 12, 15120-15133.
     DOI: 10.1021/acsomega.9b02011
   
   for metadynamics refer to:
   * S. Grimme, J. Chem. Theory Comput., 2019, 155, 2847-2862
     DOI: 10.1021/acs.jctc.9b00143
   
   for SPH calculations refer to:
   * S. Spicher and S. Grimme, J. Chem. Theory Comput., 2021, 17, 1701-1714
     DOI: 10.1021/acs.jctc.0c01306
   
   with help from (in alphabetical order)
   P. Atkinson, C. Bannwarth, F. Bohle, G. Brandenburg, E. Caldeweyher
   M. Checinski, S. Dohm, S. Ehlert, S. Ehrlich, I. Gerasimov, C. Hölzer
   A. Katbashev, J. Koopman, C. Lavigne, S. Lehtola, F. März, M. Müller,
   F. Musil, H. Neugebauer, J. Pisarek, C. Plett, P. Pracht, F. Pultar,
   J. Seibert, P. Shushkov, S. Spicher, M. Stahn, M. Steiner, T. Strunk,
   J. Stückrath, T. Rose, and J. Unsleber
   
 * started run on 2022/11/17 at 06:54:59.739     

           -------------------------------------------------
          |                Calculation Setup                |
           -------------------------------------------------

          program call               : xtb solvent_cluster.coord --gfn2 --sp --lmo --chrg 0
          hostname                   : cn0363
          coordinate file            : solvent_cluster.coord
          omp threads                :                     2

   ID    Z sym.   atoms
    1    8 o      1, 4, 7, 10, 13, 16, 19, 22, 25, 28, 31, 34, 37, 40, 43,
                  46, 49, 52, 55, 58, 61, 64, 67, 70, 73, 76, 79, 82, 85, 88,
                  91, 94, 97, 100, 103, 106, 109, 112, 115, 118, 121, 124,
                  127, 130, 133, 136, 139, 142, 145, 148, 151, 154, 157, 160,
                  163, 166, 169, 172, 175, 178, 181, 184, 187, 190, 193, 196,
                  199, 202, 205, 208, 211, 214, 217, 220, 223, 226, 229, 232,
                  235, 238, 241, 244, 247, 250, 253, 256, 259, 262, 265, 268,
                  271, 274, 277, 280, 283, 286, 289, 292, 295, 298, 301, 304,
                  307, 310, 313, 316, 319, 322, 325, 328, 331, 334, 337, 340,
                  343, 346, 349, 352, 355, 358, 361, 364, 367, 370, 373, 376,
                  379, 382, 385, 388, 391, 394, 397, 400, 403, 406, 409, 412,
                  415, 418, 421, 424, 427, 430, 433, 436, 439, 442, 445, 448,
                  451, 454, 457, 460, 463, 466, 469, 472, 475, 478, 481, 484,
                  487, 490, 493, 496, 499, 502, 505, 508, 511, 514, 517, 520,
                  523, 526, 529
    2    1 h      2, 3, 5, 6, 8, 9, 11, 12, 14, 15, 17, 18, 20, 21, 23, 24,
                  26, 27, 29, 30, 32, 33, 35, 36, 38, 39, 41, 42, 44, 45, 47,
                  48, 50, 51, 53, 54, 56, 57, 59, 60, 62, 63, 65, 66, 68, 69,
                  71, 72, 74, 75, 77, 78, 80, 81, 83, 84, 86, 87, 89, 90, 92,
                  93, 95, 96, 98, 99, 101, 102, 104, 105, 107, 108, 110, 111,
                  113, 114, 116, 117, 119, 120, 122, 123, 125, 126, 128, 129,
                  131, 132, 134, 135, 137, 138, 140, 141, 143, 144, 146, 147,
                  149, 150, 152, 153, 155, 156, 158, 159, 161, 162, 164, 165,
                  167, 168, 170, 171, 173, 174, 176, 177, 179, 180, 182, 183,
                  185, 186, 188, 189, 191, 192, 194, 195, 197, 198, 200, 201,
                  203, 204, 206, 207, 209, 210, 212, 213, 215, 216, 218, 219,
                  221, 222, 224, 225, 227, 228, 230, 231, 233, 234, 236, 237,
                  239, 240, 242, 243, 245, 246, 248, 249, 251, 252, 254, 255,
                  257, 258, 260, 261, 263, 264, 266, 267, 269, 270, 272, 273,
                  275, 276, 278, 279, 281, 282, 284, 285, 287, 288, 290, 291,
                  293, 294, 296, 297, 299, 300, 302, 303, 305, 306, 308, 309,
                  311, 312, 314, 315, 317, 318, 320, 321, 323, 324, 326, 327,
                  329, 330, 332, 333, 335, 336, 338, 339, 341, 342, 344, 345,
                  347, 348, 350, 351, 353, 354, 356, 357, 359, 360, 362, 363,
                  365, 366, 368, 369, 371, 372, 374, 375, 377, 378, 380, 381,
                  383, 384, 386, 387, 389, 390, 392, 393, 395, 396, 398, 399,
                  401, 402, 404, 405, 407, 408, 410, 411, 413, 414, 416, 417,
                  419, 420, 422, 423, 425, 426, 428, 429, 431, 432, 434, 435,
                  437, 438, 440, 441, 443, 444, 446, 447, 449, 450, 452, 453,
                  455, 456, 458, 459, 461, 462, 464, 465, 467, 468, 470, 471,
                  473, 474, 476, 477, 479, 480, 482, 483, 485, 486, 488, 489,
                  491, 492, 494, 495, 497, 498, 500, 501, 503, 504, 506, 507,
                  509, 510, 512, 513, 515, 516, 518, 519, 521, 522, 524, 525,
                  527, 528, 530, 531

molecular fragmentation (1/2 indicates fragments):
111222222222222222222222222222222222222222222222222222222222222222222222
222222222222222222222222222222222222222222222222222222222222222222222222
222222222222222222222222222222222222222222222222222222222222222222222222
222222222222222222222222222222222222222222222222222222222222222222222222
222222222222222222222222222222222222222222222222222222222222222222222222
222222222222222222222222222222222222222222222222222222222222222222222222
222222222222222222222222222222222222222222222222222222222222222222222222
222222222222222222222222222
# atoms in fragment 1/2:     3   528
 fragment masses (1/2) :       18.02     3170.69
CMA distance (Bohr)    :   5.446
constraining FC (au)   :  0.0500

           -------------------------------------------------
          |                 G F N 2 - x T B                 |
           -------------------------------------------------

        Reference                      10.1021/acs.jctc.8b01176
      * Hamiltonian:
        H0-scaling (s, p, d)           1.850000    2.230000    2.230000
        zeta-weighting                 0.500000
      * Dispersion:
        s8                             2.700000
        a1                             0.520000
        a2                             5.000000
        s9                             5.000000
      * Repulsion:
        kExp                           1.500000    1.000000
        rExp                           1.000000
      * Coulomb:
        alpha                          2.000000
        third order                    shell-resolved
        anisotropic                    true
        a3                             3.000000
        a5                             4.000000
        cn-shift                       1.200000
        cn-exp                         4.000000
        max-rad                        5.000000


          ...................................................
          :                      SETUP                      :
          :.................................................:
          :  # basis functions                1062          :
          :  # atomic orbitals                1062          :
          :  # shells                          708          :
          :  # electrons                      1416          :
          :  max. iterations                   250          :
          :  Hamiltonian                  GFN2-xTB          :
          :  restarted?                      false          :
          :  GBSA solvation                  false          :
          :  PC potential                    false          :
          :  electronic temp.          300.0000000     K    :
          :  accuracy                    1.0000000          :
          :  -> integral cutoff          0.2500000E+02      :
          :  -> integral neglect         0.1000000E-07      :
          :  -> SCF convergence          0.1000000E-05 Eh   :
          :  -> wf. convergence          0.1000000E-03 e    :
          :  Broyden damping             0.4000000          :
          ...................................................

 iter      E             dE          RMSdq      gap      omega  full diag
   1   -906.5845117 -0.906585E+03  0.406E+00    8.71       0.0  T
   2   -906.6399489 -0.554372E-01  0.241E+00    7.74       1.0  T
   3   -906.6625116 -0.225627E-01  0.212E-01    6.37       1.0  T
   4   -906.6663591 -0.384752E-02  0.460E-02    6.77       1.0  T
   5   -906.6664277 -0.685578E-04  0.312E-02    6.71       1.0  T
   6   -906.6664570 -0.293065E-04  0.412E-03    6.74       1.1  T
   7   -906.6664586 -0.160304E-05  0.748E-04    6.74       5.8  T
   8   -906.6664586 -0.206755E-07  0.381E-04    6.74      11.4  T
   9   -906.6664586 -0.994226E-08  0.628E-05    6.74      69.1  T

   *** convergence criteria satisfied after 9 iterations ***

         #    Occupation            Energy/Eh            Energy/eV
      -------------------------------------------------------------
         1        2.0000           -0.6986608             -19.0115
       ...           ...                  ...                  ...
       702        2.0000           -0.3629953              -9.8776
       703        2.0000           -0.3587834              -9.7630
       704        2.0000           -0.3550071              -9.6602
       705        2.0000           -0.3540522              -9.6342
       706        2.0000           -0.3493708              -9.5069
       707        2.0000           -0.3366724              -9.1613
       708        2.0000           -0.3256180              -8.8605 (HOMO)
       709                         -0.0780683              -2.1243 (LUMO)
       710                         -0.0747177              -2.0332
       711                         -0.0531184              -1.4454
       712                         -0.0489228              -1.3313
       713                         -0.0436598              -1.1880
       ...                                ...                  ...
      1062                          0.4734858              12.8842
      -------------------------------------------------------------
                  HL-Gap            0.2475497 Eh            6.7362 eV
             Fermi-level           -0.2018431 Eh           -5.4924 eV
 
 localization/xTB-IFF output generation
 averaging CT terms over            1  occ. levels
 averaging CT terms over            2  virt. levels
 dipole moment from electron density (au)
     X       Y       Z   
  -1.2767  -1.8714  -1.6257  total (Debye):    7.087
cpu  time for init local    0.43 s
wall time for init local    0.21 s
 doing rotations ...
 initialization of trafo matrix to unity

 converged in     15 iterations, threshold :   0.99996730D-06
 doing transformations ...
 lmo centers(Z=2) and atoms on file <lmocent.coord>
 LMO Fii/eV  ncent    charge center   contributions...
    1 LP   *******   0.00   0.14723 -10.21828   7.05668  340O :  9.58   58O :  5.45  160O :  4.15  505O :  4.13  115O :  4.04  484O :  3.71  175O :  3.57  166O :  3.55   79O :  3.54   13O :  3.48  103O :  3.40  415O :  3.21
  181O :  3.10  523O :  3.01  442O :  2.90   70O :  2.88  499O :  2.86  172O :  2.84  136O :  2.64  241O :  2.63  142O :  2.61  331O :  2.57   76O :  2.43   28O :  2.42
   40O :  2.38   43O :  2.37  202O :  2.37   52O :  2.33  409O :  2.33   10O :  2.29  388O :  2.26  463O :  2.25   82O :  2.24  163O :  2.18  148O :  2.13  208O :  2.09
  217O :  2.09  235O :  2.07  178O :  2.03   16O :  2.01  514O :  1.98  424O :  1.96  520O :  1.95  199O :  1.89    4O :  1.87    1O :  1.84  466O :  1.72  205O :  1.72
  391O :  1.71  112O :  1.70   64O :  1.64  358O :  1.63  478O :  1.63  427O :  1.61  454O :  1.61   25O :  1.60   34O :  1.59  469O :  1.58  394O :  1.54  379O :  1.53
  481O :  1.50  250O :  1.50   19O :  1.49  292O :  1.48  133O :  1.47  496O :  1.45  490O :  1.44  127O :  1.43  124O :  1.42  445O :  1.41  460O :  1.35  526O :  1.35
  529O :  1.34   97O :  1.33   88O :  1.33   31O :  1.30  322O :  1.28  487O :  1.27  439O :  1.25  256O :  1.23  280O :  1.23  193O :  1.22  421O :  1.20  118O :  1.20
  352O :  1.18  502O :  1.16  211O :  1.14  301O :  1.14   49O :  1.10   37O :  1.09  277O :  1.07  100O :  1.06  403O :  1.05  367O :  1.04  316O :  1.02  493O :  1.02
  220O :  0.97    7O :  0.94  253O :  0.94  121O :  0.94  259O :  0.94  298O :  0.93  184O :  0.92  274O :  0.91  319O :  0.88   85O :  0.83  397O :  0.82  151O :  0.82
   67O :  0.82  268O :  0.81   61O :  0.80  349O :  0.79  247O :  0.78  343O :  0.76  310O :  0.74  289O :  0.73  430O :  0.72  229O :  0.71  232O :  0.69   44H :  0.68
   15H :  0.68  508O :  0.63  328O :  0.63  376O :  0.62   73O :  0.61  304O :  0.61  475O :  0.56  370O :  0.56  436O :  0.55  190O :  0.55  457O :  0.54  262O :  0.53
  196O :  0.53  361O :  0.52  271O :  0.52  472O :  0.51  130O :  0.51  373O :  0.50  223O :  0.50  325O :  0.49  169O :  0.49  145O :  0.49   17H :  0.48  355O :  0.47
  187O :  0.46  433O :  0.45  412O :  0.44  244O :  0.43  139O :  0.42  418O :  0.42  143H :  0.42  333H :  0.41  364O :  0.41  106O :  0.40  313O :  0.39  382O :  0.39
   46O :  0.38   59H :  0.37  448O :  0.37  480H :  0.36  173H :  0.35  517O :  0.35   98H :  0.35  286O :  0.34   55O :  0.34   36H :  0.34  416H :  0.32   91O :  0.32
  406O :  0.30  324H :  0.30  451O :  0.29   22O :  0.29  243H :  0.29  525H :  0.28  334O :  0.28  120H :  0.28  346O :  0.28  295O :  0.27  344H :  0.27  491H :  0.27
  385O :  0.26  249H :  0.25  154O :  0.25  524H :  0.25  492H :  0.24  238O :  0.24  135H :  0.24  182H :  0.22  405H :  0.22  230H :  0.22  214O :  0.22  283O :  0.22
   77H :  0.22  511O :  0.21  125H :  0.21  307O :  0.21  432H :  0.20  119H :  0.20  400O :  0.20  462H :  0.20   94O :  0.20  275H :  0.19  337O :  0.19   21H :  0.18
   26H :  0.18  132H :  0.18  467H :  0.18  374H :  0.17  226O :  0.17   11H :  0.17    9H :  0.17  210H :  0.16  265O :  0.16  341H :  0.16   35H :  0.15  138H :  0.15
  104H :  0.14  444H :  0.14  102H :  0.13  507H :  0.13  521H :  0.13   27H :  0.13  447H :  0.13  278H :  0.13  123H :  0.12  113H :  0.12   14H :  0.12  179H :  0.12
  206H :  0.11  224H :  0.11  222H :  0.11  422H :  0.11   54H :  0.11  378H :  0.10   84H :  0.10   60H :  0.10  315H :  0.10   74H :  0.10   29H :  0.10  426H :  0.10
  440H :  0.10  498H :  0.10   75H :  0.10  183H :  0.10  429H :  0.09  381H :  0.09  516H :  0.09   51H :  0.09  411H :  0.09  225H :  0.09  417H :  0.09  251H :  0.09
  176H :  0.09  393H :  0.09  299H :  0.08   47H :  0.08   18H :  0.08   81H :  0.08  255H :  0.08  282H :  0.08  353H :  0.08  171H :  0.08  320H :  0.08  293H :  0.08
  470H :  0.08  360H :  0.08  369H :  0.08  252H :  0.07   53H :  0.07  348H :  0.07   38H :  0.07
    2 LP   *******   0.00   9.50955  -1.45478   3.81839   58O :  7.41  340O :  4.65  160O :  3.35  505O :  3.29  115O :  3.26  484O :  2.99  175O :  2.87  166O :  2.86   79O :  2.86   13O :  2.81  103O :  2.74  415O :  2.59
  181O :  2.51  523O :  2.43  442O :  2.34   70O :  2.32  499O :  2.30  172O :  2.29  136O :  2.13  241O :  2.12  142O :  2.11  331O :  2.07   76O :  1.96   28O :  1.95
   40O :  1.92   43O :  1.91  202O :  1.91   52O :  1.88  409O :  1.88   10O :  1.84  388O :  1.82  463O :  1.82   82O :  1.81  163O :  1.76  148O :  1.72  208O :  1.68
  217O :  1.68  235O :  1.67  178O :  1.64   16O :  1.62  514O :  1.60  424O :  1.58  520O :  1.57  199O :  1.52    4O :  1.52    1O :  1.48  466O :  1.39  205O :  1.39
  391O :  1.38  112O :  1.37   64O :  1.32  358O :  1.32  478O :  1.31  427O :  1.30  454O :  1.30   25O :  1.29   34O :  1.28  469O :  1.28  394O :  1.24  379O :  1.24
  481O :  1.21   19O :  1.21  250O :  1.21  292O :  1.19  133O :  1.19  496O :  1.17  490O :  1.16  127O :  1.15  124O :  1.15  445O :  1.14  460O :  1.09  526O :  1.09
  529O :  1.08   97O :  1.08   31O :  1.05   88O :  1.05  322O :  1.03  487O :  1.03  439O :  1.01  256O :  0.99  280O :  0.99  421O :  0.97  118O :  0.97  352O :  0.95
  193O :  0.95  502O :  0.94  211O :  0.92  301O :  0.92  277O :  0.89   49O :  0.88   37O :  0.88  100O :  0.86  403O :  0.85  367O :  0.84  316O :  0.83  493O :  0.82
  220O :  0.78    7O :  0.76  121O :  0.76  253O :  0.76  259O :  0.75  298O :  0.75  184O :  0.74  274O :  0.74  319O :  0.71   85O :  0.67  397O :  0.67  151O :  0.66
   67O :  0.66  268O :  0.66   61O :  0.64  349O :  0.64  343O :  0.61  247O :  0.61  310O :  0.60  289O :  0.59  430O :  0.58  229O :  0.57  232O :  0.56   44H :  0.55
   15H :  0.55  508O :  0.51  328O :  0.51  376O :  0.50   73O :  0.49  304O :  0.49  475O :  0.45  370O :  0.45  436O :  0.45  190O :  0.44  457O :  0.44  262O :  0.43
  196O :  0.42  361O :  0.42  271O :  0.42  472O :  0.41  130O :  0.41  373O :  0.40  223O :  0.40  325O :  0.40  169O :  0.40  145O :  0.39   17H :  0.38  355O :  0.38
  187O :  0.37  433O :  0.37  412O :  0.35  244O :  0.35  139O :  0.34  418O :  0.34  143H :  0.34  333H :  0.33  364O :  0.33  106O :  0.32  313O :  0.31  382O :  0.31
   46O :  0.31  448O :  0.30  480H :  0.29  173H :  0.29  517O :  0.28   98H :  0.28   55O :  0.28  286O :  0.28   36H :  0.27  416H :  0.26   59H :  0.26   91O :  0.26
  406O :  0.24  324H :  0.24  451O :  0.24   22O :  0.23  243H :  0.23  525H :  0.23  334O :  0.23  120H :  0.22  346O :  0.22  295O :  0.22  344H :  0.22  491H :  0.21
  385O :  0.21  154O :  0.20  524H :  0.20  492H :  0.20  249H :  0.20  238O :  0.19  135H :  0.19  182H :  0.18  405H :  0.18  230H :  0.18  214O :  0.18  283O :  0.18
   77H :  0.18  511O :  0.17  125H :  0.17  307O :  0.17  432H :  0.16  119H :  0.16  400O :  0.16  462H :  0.16   94O :  0.16  275H :  0.15  337O :  0.15   21H :  0.15
   26H :  0.15  132H :  0.15  467H :  0.14  341H :  0.14  374H :  0.14  226O :  0.14    9H :  0.14   11H :  0.14  210H :  0.13  265O :  0.13   35H :  0.12  138H :  0.12
  104H :  0.12  444H :  0.11  507H :  0.11  102H :  0.11   27H :  0.11  521H :  0.11  278H :  0.10  447H :  0.10  123H :  0.10  113H :  0.09   14H :  0.09  179H :  0.09
  206H :  0.09  224H :  0.09  222H :  0.09  422H :  0.09   54H :  0.09  378H :  0.08   84H :  0.08  315H :  0.08   74H :  0.08   29H :  0.08  426H :  0.08  440H :  0.08
  498H :  0.08   75H :  0.08  183H :  0.08  429H :  0.08  381H :  0.08  516H :  0.07   51H :  0.07  411H :  0.07  225H :  0.07  417H :  0.07  251H :  0.07
    3 LP   *******   0.00  11.20220   2.65371  -5.86506  115O :  5.15  340O :  3.68   58O :  3.48  160O :  2.65  505O :  2.60  484O :  2.32  175O :  2.27   79O :  2.26  166O :  2.25   13O :  2.22  103O :  2.17  415O :  2.05
  181O :  1.98  523O :  1.92  442O :  1.85   70O :  1.84  499O :  1.83  172O :  1.81  136O :  1.69  241O :  1.68  142O :  1.67  331O :  1.64   28O :  1.54   40O :  1.52
   76O :  1.52   43O :  1.51  202O :  1.51   52O :  1.49  409O :  1.49   10O :  1.46  388O :  1.44  463O :  1.44   82O :  1.43  163O :  1.39  148O :  1.36  208O :  1.33
  217O :  1.33  235O :  1.32  178O :  1.30   16O :  1.28  514O :  1.27  424O :  1.25  520O :  1.24  199O :  1.21    4O :  1.20    1O :  1.17  466O :  1.10  205O :  1.10
  391O :  1.09  112O :  1.08   64O :  1.05  358O :  1.04  478O :  1.04  427O :  1.03  454O :  1.03   25O :  1.02   34O :  1.01  469O :  1.01  394O :  0.98  379O :  0.98
  481O :  0.96   19O :  0.96  250O :  0.96  292O :  0.95  133O :  0.94  496O :  0.93  490O :  0.92  127O :  0.91  124O :  0.91  445O :  0.90  460O :  0.86  526O :  0.86
  529O :  0.86   97O :  0.85   88O :  0.85   31O :  0.83  322O :  0.82  487O :  0.81  439O :  0.80  256O :  0.79  280O :  0.79  193O :  0.77  421O :  0.77  118O :  0.76
  352O :  0.75  502O :  0.74  211O :  0.73  301O :  0.73  277O :  0.71   49O :  0.70   37O :  0.70  100O :  0.68  403O :  0.67  367O :  0.67  316O :  0.65  493O :  0.65
  220O :  0.62    7O :  0.60  121O :  0.60  253O :  0.60  259O :  0.60  298O :  0.60  184O :  0.59  274O :  0.58  319O :  0.56   85O :  0.53  397O :  0.53   67O :  0.53
  151O :  0.53  268O :  0.52   61O :  0.51  349O :  0.50  343O :  0.49  247O :  0.48  310O :  0.47  289O :  0.46  430O :  0.46  229O :  0.45  232O :  0.44   44H :  0.44
   15H :  0.43  508O :  0.40  328O :  0.40  376O :  0.39   73O :  0.39  304O :  0.39  475O :  0.36  370O :  0.36  436O :  0.35  190O :  0.35  457O :  0.34  262O :  0.34
  196O :  0.34  361O :  0.33  271O :  0.33  472O :  0.33  130O :  0.32  373O :  0.32  223O :  0.32  325O :  0.32  145O :  0.31  169O :  0.31   17H :  0.30  355O :  0.30
  187O :  0.29  433O :  0.29  412O :  0.28  139O :  0.27  418O :  0.27  143H :  0.27  333H :  0.26  364O :  0.26  244O :  0.26  106O :  0.26  313O :  0.25  382O :  0.25
   46O :  0.24   59H :  0.24  448O :  0.23  480H :  0.23  173H :  0.23  517O :  0.22   98H :  0.22  286O :  0.22   55O :  0.22   36H :  0.22  416H :  0.21   91O :  0.20
  406O :  0.19  324H :  0.19  451O :  0.19   22O :  0.19  243H :  0.18  525H :  0.18  334O :  0.18  120H :  0.18  346O :  0.18  295O :  0.17  344H :  0.17  491H :  0.17
  385O :  0.17  154O :  0.16  524H :  0.16  492H :  0.16  249H :  0.15  238O :  0.15  135H :  0.15  182H :  0.14  405H :  0.14  230H :  0.14  214O :  0.14  283O :  0.14
  511O :  0.14  125H :  0.13  307O :  0.13  432H :  0.13  119H :  0.13  400O :  0.13  462H :  0.13   94O :  0.12  275H :  0.12  337O :  0.12   21H :  0.12   26H :  0.12
  132H :  0.12  467H :  0.11  341H :  0.11  374H :  0.11  226O :  0.11   11H :  0.11    9H :  0.11  246H :  0.11   77H :  0.11  210H :  0.10  265O :  0.10   35H :  0.10
  138H :  0.10  104H :  0.09  444H :  0.09  507H :  0.09  102H :  0.09   27H :  0.09  521H :  0.09  278H :  0.08  447H :  0.08  123H :  0.08  113H :  0.07   14H :  0.07
  179H :  0.07  206H :  0.07  224H :  0.07  222H :  0.07
    4 LP   *******   0.00  -6.16878 -10.06125   8.50535  175O :  4.80  340O :  3.59   58O :  3.39  160O :  2.58  505O :  2.53  115O :  2.51  484O :  2.30  166O :  2.20   79O :  2.20   13O :  2.16  103O :  2.11  415O :  1.99
  181O :  1.93  523O :  1.87  442O :  1.80   70O :  1.79  499O :  1.78  172O :  1.76  136O :  1.64  241O :  1.63  142O :  1.62  331O :  1.59   76O :  1.51   28O :  1.50
   40O :  1.48   43O :  1.47  202O :  1.47   52O :  1.45  409O :  1.45   10O :  1.42  388O :  1.40  463O :  1.40   82O :  1.39  163O :  1.35  148O :  1.33  208O :  1.30
  217O :  1.30  235O :  1.29  178O :  1.26   16O :  1.25  514O :  1.23  424O :  1.22  520O :  1.21  199O :  1.17    4O :  1.17    1O :  1.14  466O :  1.07  205O :  1.07
  391O :  1.06  112O :  1.05   64O :  1.02  358O :  1.02  478O :  1.01  427O :  1.00   25O :  1.00  454O :  1.00   34O :  0.99  469O :  0.98  394O :  0.96  379O :  0.95
  481O :  0.93   19O :  0.93  250O :  0.93  292O :  0.92  133O :  0.92  496O :  0.90  490O :  0.89  127O :  0.89  124O :  0.88  445O :  0.88  460O :  0.84  526O :  0.84
  529O :  0.83   97O :  0.83   88O :  0.83   31O :  0.81  322O :  0.79  487O :  0.79  439O :  0.78  256O :  0.77  280O :  0.76  193O :  0.76  421O :  0.74  118O :  0.74
  352O :  0.73  502O :  0.72  211O :  0.71  301O :  0.71  277O :  0.69   49O :  0.68   37O :  0.68  100O :  0.66  403O :  0.65  367O :  0.65  316O :  0.64  493O :  0.63
  220O :  0.60    7O :  0.59  253O :  0.58  121O :  0.58  259O :  0.58  298O :  0.58  184O :  0.57  274O :  0.57  319O :  0.55   85O :  0.52  397O :  0.51  151O :  0.51
   67O :  0.51  268O :  0.51   61O :  0.50  349O :  0.49  343O :  0.47  247O :  0.47  310O :  0.46  289O :  0.45  430O :  0.45  229O :  0.44  232O :  0.43   44H :  0.42
   15H :  0.42  508O :  0.39  328O :  0.39  376O :  0.38  304O :  0.38   73O :  0.38  475O :  0.35  370O :  0.35  436O :  0.34  190O :  0.34  457O :  0.34  262O :  0.33
  196O :  0.33  361O :  0.32  271O :  0.32  130O :  0.32  472O :  0.32  373O :  0.31  223O :  0.31  325O :  0.31  169O :  0.30  145O :  0.30   17H :  0.30  355O :  0.29
  187O :  0.28  433O :  0.28  412O :  0.27  244O :  0.27  139O :  0.26  418O :  0.26  143H :  0.26  313O :  0.26  333H :  0.26  364O :  0.26  106O :  0.25  382O :  0.24
   46O :  0.24   59H :  0.23  448O :  0.23  480H :  0.22  173H :  0.22  517O :  0.22   98H :  0.22  286O :  0.21   55O :  0.21   36H :  0.21  416H :  0.20   91O :  0.20
  406O :  0.19  324H :  0.18  451O :  0.18   22O :  0.18  243H :  0.18  525H :  0.18  334O :  0.17  120H :  0.17  346O :  0.17  295O :  0.17  344H :  0.17  491H :  0.16
  385O :  0.16  154O :  0.16  524H :  0.15  492H :  0.15  249H :  0.15  238O :  0.15  135H :  0.15  182H :  0.14  405H :  0.14  230H :  0.14  283O :  0.14   77H :  0.13
  214O :  0.13  125H :  0.13  432H :  0.13  307O :  0.13  119H :  0.13  400O :  0.12  462H :  0.12   94O :  0.12  275H :  0.12  511O :  0.12  337O :  0.12   26H :  0.11
   21H :  0.11  132H :  0.11  467H :  0.11  341H :  0.11  374H :  0.11  226O :  0.11   11H :  0.11    9H :  0.11  210H :  0.10  265O :  0.10   35H :  0.09  138H :  0.09
  104H :  0.09  444H :  0.08  507H :  0.08  102H :  0.08   27H :  0.08  521H :  0.08  278H :  0.08  447H :  0.08  123H :  0.07  113H :  0.07   14H :  0.07  179H :  0.07
  206H :  0.07
    5 LP   *******   0.01  -9.67793   6.47098  -3.48961  181O :  3.99  340O :  3.15   58O :  2.99  160O :  2.27  505O :  2.23  115O :  2.21  484O :  2.03  175O :  1.95  166O :  1.94   79O :  1.94   13O :  1.91  103O :  1.86
  415O :  1.76  523O :  1.65  442O :  1.59   70O :  1.58  499O :  1.57  172O :  1.55  136O :  1.44  241O :  1.44  142O :  1.43  331O :  1.41   76O :  1.33   28O :  1.32
   40O :  1.30   43O :  1.30  202O :  1.30   52O :  1.28  409O :  1.27   10O :  1.25  388O :  1.24  463O :  1.23   82O :  1.23  163O :  1.19  148O :  1.17  208O :  1.14
  217O :  1.14  235O :  1.14  178O :  1.11   16O :  1.10  514O :  1.09  424O :  1.07  520O :  1.07  199O :  1.03    4O :  1.03    1O :  1.01  466O :  0.94  205O :  0.94
  391O :  0.94  112O :  0.93   64O :  0.90  358O :  0.90  478O :  0.89  427O :  0.88   25O :  0.88  454O :  0.88   34O :  0.87  469O :  0.87  394O :  0.84  379O :  0.84
  481O :  0.82   19O :  0.82  250O :  0.82  292O :  0.81  133O :  0.81  496O :  0.80  490O :  0.79  127O :  0.78  124O :  0.78  445O :  0.77  460O :  0.74  526O :  0.74
  529O :  0.73   88O :  0.73   97O :  0.73   31O :  0.71  322O :  0.70  487O :  0.70  439O :  0.69  256O :  0.68  280O :  0.67  193O :  0.67  421O :  0.66  118O :  0.66
  352O :  0.65  502O :  0.64  211O :  0.63  301O :  0.62   49O :  0.61  277O :  0.61   37O :  0.60  100O :  0.58  403O :  0.58  493O :  0.58  367O :  0.57  316O :  0.56
  220O :  0.53    7O :  0.52  253O :  0.51  121O :  0.51  259O :  0.51  298O :  0.51  184O :  0.50  274O :  0.50  319O :  0.48   85O :  0.46  397O :  0.45  151O :  0.45
   67O :  0.45  268O :  0.45   61O :  0.43  349O :  0.43  343O :  0.42  247O :  0.42  310O :  0.40  289O :  0.40  430O :  0.40  229O :  0.39  232O :  0.38   44H :  0.37
   15H :  0.37   73O :  0.35  508O :  0.35  328O :  0.35  376O :  0.34  304O :  0.34  370O :  0.31  475O :  0.31  436O :  0.30  190O :  0.30  457O :  0.30  262O :  0.29
  196O :  0.29  361O :  0.29  271O :  0.29  472O :  0.28  130O :  0.28  325O :  0.27  223O :  0.27  373O :  0.27  169O :  0.27  145O :  0.27  492H :  0.27   17H :  0.26
  355O :  0.26  187O :  0.25  433O :  0.25  412O :  0.24  244O :  0.24  139O :  0.23  418O :  0.23  143H :  0.23  333H :  0.23  364O :  0.23  106O :  0.22  313O :  0.21
  382O :  0.21   46O :  0.21   59H :  0.20  448O :  0.20  480H :  0.20  173H :  0.19   98H :  0.19  517O :  0.19  286O :  0.19   55O :  0.19   36H :  0.19  416H :  0.18
   91O :  0.18  406O :  0.16  324H :  0.16  451O :  0.16   22O :  0.16  243H :  0.16  525H :  0.16  120H :  0.16  334O :  0.15  346O :  0.15  295O :  0.15  344H :  0.15
  491H :  0.14  385O :  0.14  154O :  0.14  524H :  0.13  249H :  0.13  238O :  0.13  135H :  0.13  405H :  0.12  230H :  0.12  214O :  0.12  283O :  0.12   77H :  0.12
  511O :  0.12  125H :  0.12  307O :  0.11  432H :  0.11  119H :  0.11  400O :  0.11  462H :  0.11   94O :  0.11  182H :  0.11  275H :  0.11  337O :  0.10   21H :  0.10
   26H :  0.10  132H :  0.10  467H :  0.10  341H :  0.10  374H :  0.10  226O :  0.09   11H :  0.09    9H :  0.09  210H :  0.09  265O :  0.09   35H :  0.08  138H :  0.08
  104H :  0.08  444H :  0.07  507H :  0.07  102H :  0.07   27H :  0.07  521H :  0.07
    6 LP   *******   0.01 -12.74041   1.42418   9.44612   13O :  4.21  340O :  3.15   58O :  2.98  160O :  2.31  505O :  2.23  115O :  2.21  484O :  2.03   79O :  1.96  175O :  1.94  166O :  1.94  103O :  1.86  415O :  1.75
  181O :  1.70  523O :  1.64  442O :  1.58   70O :  1.57  499O :  1.57  172O :  1.55  136O :  1.44  241O :  1.44  142O :  1.42  331O :  1.40   76O :  1.33   28O :  1.32
   40O :  1.30   43O :  1.29  202O :  1.29   52O :  1.28  409O :  1.27   10O :  1.25  388O :  1.23  463O :  1.23   82O :  1.22  163O :  1.19  148O :  1.17  208O :  1.14
  217O :  1.14  235O :  1.13  178O :  1.11   16O :  1.10  514O :  1.08  424O :  1.07  520O :  1.06  199O :  1.03    4O :  1.03    1O :  1.00  466O :  0.94  205O :  0.94
  391O :  0.94  112O :  0.93   64O :  0.90  358O :  0.89  478O :  0.89  427O :  0.88  454O :  0.88   25O :  0.88   34O :  0.87  469O :  0.86  394O :  0.84  379O :  0.84
   19O :  0.82  250O :  0.82  292O :  0.81  133O :  0.81  481O :  0.80  496O :  0.79  490O :  0.79  127O :  0.78  124O :  0.78  445O :  0.77  460O :  0.74  526O :  0.74
  529O :  0.73   97O :  0.73   88O :  0.73   31O :  0.71  487O :  0.69  439O :  0.69  256O :  0.67  280O :  0.67  322O :  0.67  193O :  0.67  421O :  0.66  118O :  0.65
  352O :  0.65  502O :  0.63  211O :  0.62  301O :  0.62  277O :  0.61   49O :  0.60   37O :  0.60  100O :  0.58  403O :  0.58  367O :  0.57  316O :  0.56  493O :  0.56
  220O :  0.53    7O :  0.52  253O :  0.51  121O :  0.51  259O :  0.51  298O :  0.51  274O :  0.50  184O :  0.49  319O :  0.48   85O :  0.46  397O :  0.45  151O :  0.45
   67O :  0.45  268O :  0.44   61O :  0.44  349O :  0.43  343O :  0.42  247O :  0.41  310O :  0.40  289O :  0.40  430O :  0.40  229O :  0.39  232O :  0.38   44H :  0.37
  508O :  0.35  328O :  0.35   15H :  0.34  376O :  0.34   73O :  0.33  304O :  0.33  475O :  0.31  370O :  0.31  436O :  0.30  190O :  0.30  457O :  0.30  262O :  0.29
  196O :  0.29  361O :  0.29  271O :  0.28  472O :  0.28  130O :  0.28  373O :  0.27  223O :  0.27  325O :  0.27  169O :  0.27  145O :  0.27   17H :  0.26  355O :  0.26
  187O :  0.25  433O :  0.25  412O :  0.24  244O :  0.24  139O :  0.23  418O :  0.23  143H :  0.23  364O :  0.23  333H :  0.23  106O :  0.22  313O :  0.21  382O :  0.21
   46O :  0.21   59H :  0.20  448O :  0.20  480H :  0.20  173H :  0.19  517O :  0.19   98H :  0.19  286O :  0.19   55O :  0.19   36H :  0.18  416H :  0.18   91O :  0.17
  324H :  0.16  406O :  0.16  451O :  0.16   22O :  0.16  243H :  0.16  525H :  0.16  334O :  0.15  120H :  0.15  346O :  0.15  295O :  0.15  344H :  0.15  491H :  0.15
  385O :  0.14  154O :  0.14  524H :  0.13  492H :  0.13  249H :  0.13  238O :  0.13  135H :  0.13  182H :  0.12  405H :  0.12  230H :  0.12  283O :  0.12  214O :  0.12
   77H :  0.12  511O :  0.12  125H :  0.11  307O :  0.11  432H :  0.11  119H :  0.11  400O :  0.11  462H :  0.11   94O :  0.11  275H :  0.11  337O :  0.10   21H :  0.10
   26H :  0.10  132H :  0.10  374H :  0.10  467H :  0.10  341H :  0.10  226O :  0.09   11H :  0.09    9H :  0.09  210H :  0.09  265O :  0.09   35H :  0.08  138H :  0.08
  104H :  0.08  444H :  0.07  507H :  0.07  102H :  0.07   27H :  0.07  521H :  0.07
    7 LP   *******   0.01   7.56444   0.89532   6.22767  499O :  3.67  340O :  3.14   58O :  2.94  160O :  2.26  505O :  2.22  115O :  2.21  484O :  2.03  175O :  1.94  166O :  1.94   79O :  1.93   13O :  1.90  103O :  1.86
  415O :  1.75  181O :  1.70  523O :  1.65  442O :  1.58   70O :  1.57  172O :  1.55  136O :  1.44  241O :  1.43  142O :  1.43  331O :  1.40   76O :  1.33   28O :  1.32
   40O :  1.30   43O :  1.29  202O :  1.29   52O :  1.27  409O :  1.27   10O :  1.25  388O :  1.23  463O :  1.23   82O :  1.22  163O :  1.19  148O :  1.16  208O :  1.14
  217O :  1.14  235O :  1.13  178O :  1.11   16O :  1.10  514O :  1.08  424O :  1.07  520O :  1.06  199O :  1.03    4O :  1.03    1O :  1.01  466O :  0.94  205O :  0.94
  391O :  0.94  112O :  0.93   64O :  0.89  358O :  0.89  478O :  0.89  427O :  0.88  454O :  0.88   25O :  0.88   34O :  0.87  469O :  0.86  394O :  0.84  379O :  0.84
  481O :  0.82   19O :  0.82  250O :  0.82  292O :  0.81  133O :  0.81  496O :  0.79  490O :  0.79  124O :  0.78  127O :  0.77  445O :  0.77  460O :  0.74  526O :  0.74
   97O :  0.73  529O :  0.73   88O :  0.72   31O :  0.71  322O :  0.70  487O :  0.69  439O :  0.68  256O :  0.67  280O :  0.67  193O :  0.66  421O :  0.65  118O :  0.65
  352O :  0.64  502O :  0.63  211O :  0.62  301O :  0.62  277O :  0.60   49O :  0.60   37O :  0.60  100O :  0.58  403O :  0.57  367O :  0.57  316O :  0.56  493O :  0.56
  220O :  0.53    7O :  0.51  253O :  0.51  121O :  0.51  298O :  0.51  259O :  0.51  184O :  0.50  319O :  0.50  274O :  0.50   67O :  0.46   85O :  0.46  397O :  0.45
  151O :  0.45  268O :  0.44   61O :  0.44  349O :  0.43  343O :  0.42  247O :  0.41  310O :  0.40  289O :  0.40  430O :  0.39  229O :  0.39  232O :  0.38   44H :  0.37
   15H :  0.37  508O :  0.35  328O :  0.34  376O :  0.34   73O :  0.33  304O :  0.33  475O :  0.31  370O :  0.31  436O :  0.30  190O :  0.30  457O :  0.29  262O :  0.29
  196O :  0.29  361O :  0.29  271O :  0.28  472O :  0.28  130O :  0.28  373O :  0.27  223O :  0.27  325O :  0.27  169O :  0.27  145O :  0.27   17H :  0.26  355O :  0.26
  187O :  0.25  433O :  0.25  412O :  0.24  244O :  0.24  139O :  0.23  418O :  0.23  143H :  0.23  333H :  0.23  364O :  0.23  106O :  0.22  313O :  0.21  382O :  0.21
   46O :  0.21   59H :  0.20  448O :  0.20  480H :  0.20  173H :  0.19   98H :  0.19  517O :  0.19   36H :  0.19  286O :  0.19  416H :  0.18   91O :  0.17   55O :  0.17
  406O :  0.16  324H :  0.16  451O :  0.16  525H :  0.16   22O :  0.16  243H :  0.16  334O :  0.15  120H :  0.15  346O :  0.15  295O :  0.15  344H :  0.15  491H :  0.15
  385O :  0.14  524H :  0.14  154O :  0.14  492H :  0.13  249H :  0.13  238O :  0.13  135H :  0.13  182H :  0.12  405H :  0.12  230H :  0.12  214O :  0.12  283O :  0.12
   77H :  0.12  511O :  0.12  125H :  0.11  307O :  0.11  432H :  0.11  119H :  0.11  400O :  0.11  462H :  0.11   94O :  0.11  275H :  0.10  337O :  0.10   21H :  0.10
   26H :  0.10  132H :  0.10  467H :  0.10  341H :  0.10  374H :  0.09  226O :  0.09   11H :  0.09    9H :  0.09  210H :  0.09  265O :  0.09  138H :  0.08   35H :  0.08
  104H :  0.08  444H :  0.07  507H :  0.07  102H :  0.07   27H :  0.07  521H :  0.07
    8 LP   *******   0.01   9.25555   5.30191  -2.92627  484O :  4.07  340O :  3.07   58O :  2.91  160O :  2.21  505O :  2.17  115O :  2.12  166O :  1.89  175O :  1.89   79O :  1.89   13O :  1.85  103O :  1.81  415O :  1.71
  181O :  1.65  523O :  1.60  442O :  1.54   70O :  1.53  499O :  1.53  172O :  1.51  136O :  1.41  241O :  1.40  142O :  1.39  331O :  1.37   76O :  1.29   28O :  1.29
   40O :  1.27   43O :  1.26  202O :  1.26   52O :  1.24  409O :  1.24   10O :  1.22  388O :  1.20  463O :  1.20   82O :  1.19  163O :  1.16  148O :  1.14  208O :  1.11
  217O :  1.11  235O :  1.11  178O :  1.09   16O :  1.07  514O :  1.06  424O :  1.05  520O :  1.04  199O :  1.01    4O :  1.00    1O :  0.98  466O :  0.92  205O :  0.92
  391O :  0.91  112O :  0.90   64O :  0.87  358O :  0.87  478O :  0.87  427O :  0.86  454O :  0.86   25O :  0.85   34O :  0.85  469O :  0.84  394O :  0.82  379O :  0.82
  481O :  0.80   19O :  0.80  250O :  0.80  292O :  0.79  133O :  0.78  496O :  0.77  490O :  0.77  127O :  0.76  124O :  0.76  445O :  0.75  460O :  0.72  526O :  0.72
  529O :  0.71   97O :  0.71   88O :  0.71   31O :  0.69  322O :  0.68  487O :  0.68  439O :  0.67  256O :  0.66  280O :  0.66  193O :  0.65  421O :  0.64  118O :  0.64
  352O :  0.63  502O :  0.62  211O :  0.61  301O :  0.61  277O :  0.59   49O :  0.58   37O :  0.58  100O :  0.57  403O :  0.56  367O :  0.56  316O :  0.55  493O :  0.54
    7O :  0.52  220O :  0.52  253O :  0.50  121O :  0.50  259O :  0.50  298O :  0.50  184O :  0.49  274O :  0.49  319O :  0.47   85O :  0.44  397O :  0.44  151O :  0.44
   67O :  0.44  268O :  0.43   61O :  0.42  349O :  0.41  343O :  0.41  247O :  0.40  310O :  0.39  430O :  0.39  289O :  0.39  229O :  0.38  232O :  0.37   44H :  0.36
   15H :  0.36  508O :  0.34  328O :  0.34  376O :  0.33   73O :  0.33  304O :  0.33  475O :  0.30  370O :  0.30  436O :  0.29  190O :  0.29  457O :  0.29  262O :  0.28
  196O :  0.28  361O :  0.28  271O :  0.28  472O :  0.27  130O :  0.27  373O :  0.26  223O :  0.26  325O :  0.26  169O :  0.26  145O :  0.26   17H :  0.25  355O :  0.25
  187O :  0.24  433O :  0.24  412O :  0.23  244O :  0.23  139O :  0.22  418O :  0.22  143H :  0.22  333H :  0.22  364O :  0.22  106O :  0.21  313O :  0.21  382O :  0.21
   46O :  0.20   59H :  0.20  448O :  0.20  480H :  0.19  173H :  0.19   98H :  0.19  517O :  0.19  286O :  0.18   55O :  0.18   36H :  0.18  416H :  0.17   91O :  0.17
  406O :  0.16  324H :  0.16  451O :  0.16   22O :  0.16  243H :  0.15  525H :  0.15  334O :  0.15  120H :  0.15  346O :  0.15  385O :  0.15  295O :  0.14  344H :  0.14
  491H :  0.14  154O :  0.13  524H :  0.13  492H :  0.13  249H :  0.13  135H :  0.13  238O :  0.13   77H :  0.12  182H :  0.12  405H :  0.12  230H :  0.12  214O :  0.12
  283O :  0.12  511O :  0.11  125H :  0.11  307O :  0.11  432H :  0.11  119H :  0.11  400O :  0.11  462H :  0.11   94O :  0.10  275H :  0.10  337O :  0.10   21H :  0.10
   26H :  0.10  132H :  0.10  467H :  0.10  341H :  0.09  374H :  0.09  226O :  0.09   11H :  0.09    9H :  0.09  210H :  0.08  265O :  0.08   35H :  0.08  138H :  0.08
  104H :  0.08  444H :  0.07  507H :  0.07  102H :  0.07   27H :  0.07  521H :  0.07
    9 LP   *******   0.01   0.96652  -7.86328  13.31161  505O :  4.34  340O :  3.07   58O :  2.89  160O :  2.20  115O :  2.14  484O :  1.96  175O :  1.88  166O :  1.88   79O :  1.88   13O :  1.84  103O :  1.80  415O :  1.70
  181O :  1.64  523O :  1.59  442O :  1.54   70O :  1.52  499O :  1.52  172O :  1.50  136O :  1.40  241O :  1.39  142O :  1.38  331O :  1.36   76O :  1.29   28O :  1.28
   40O :  1.26   43O :  1.25  202O :  1.25   52O :  1.24  409O :  1.23   10O :  1.21  388O :  1.20  463O :  1.19   82O :  1.19  163O :  1.15  148O :  1.13  208O :  1.11
  217O :  1.10  235O :  1.10  178O :  1.08   16O :  1.06  514O :  1.05  424O :  1.04  520O :  1.03  199O :  1.00    4O :  1.00    1O :  0.97  466O :  0.91  205O :  0.91
  391O :  0.91  112O :  0.90   64O :  0.87  358O :  0.87  478O :  0.86  427O :  0.85  454O :  0.85   25O :  0.85   34O :  0.84  469O :  0.84  394O :  0.82  379O :  0.81
  481O :  0.80   19O :  0.79  250O :  0.79  292O :  0.78  133O :  0.78  496O :  0.77  490O :  0.76  127O :  0.76  124O :  0.75  445O :  0.75  460O :  0.72  526O :  0.71
  529O :  0.71   97O :  0.71   88O :  0.70   31O :  0.69  322O :  0.68  487O :  0.67  439O :  0.66  256O :  0.65  280O :  0.65  193O :  0.65  421O :  0.63  118O :  0.63
  352O :  0.63  502O :  0.61  211O :  0.60  301O :  0.60  277O :  0.59   49O :  0.58   37O :  0.58  100O :  0.56  403O :  0.56  367O :  0.55  316O :  0.54  493O :  0.54
  220O :  0.51    7O :  0.50  253O :  0.50  121O :  0.50  259O :  0.50  298O :  0.49  184O :  0.49  274O :  0.48  319O :  0.47   85O :  0.44  397O :  0.44  151O :  0.44
   67O :  0.43  268O :  0.43   61O :  0.42  349O :  0.42  343O :  0.40  247O :  0.40  310O :  0.39  289O :  0.38  430O :  0.38  229O :  0.37  232O :  0.37   44H :  0.36
   15H :  0.36  508O :  0.34  328O :  0.33  376O :  0.33  304O :  0.32   73O :  0.32  475O :  0.30  370O :  0.30  436O :  0.29  190O :  0.29  457O :  0.29  262O :  0.28
  196O :  0.28  361O :  0.28  271O :  0.28  472O :  0.27  130O :  0.27  373O :  0.26  223O :  0.26  325O :  0.26  169O :  0.26  145O :  0.26   17H :  0.25  355O :  0.25
  187O :  0.24  433O :  0.24  412O :  0.23  244O :  0.23  139O :  0.22  418O :  0.22  143H :  0.22  333H :  0.22  364O :  0.22  106O :  0.21  313O :  0.21  382O :  0.20
   46O :  0.20   59H :  0.20  448O :  0.19  480H :  0.19  173H :  0.19   98H :  0.18  517O :  0.18  286O :  0.18   55O :  0.18   36H :  0.18  416H :  0.17   91O :  0.17
  406O :  0.16  324H :  0.16  451O :  0.16  243H :  0.15  525H :  0.15   22O :  0.15  334O :  0.15  120H :  0.15  346O :  0.15  295O :  0.14  344H :  0.14  491H :  0.14
  385O :  0.14  154O :  0.13  249H :  0.13  524H :  0.13  492H :  0.13  238O :  0.13  135H :  0.13  182H :  0.12  405H :  0.12  230H :  0.12  214O :  0.12  283O :  0.12
   77H :  0.11  511O :  0.11  307O :  0.11  125H :  0.11  432H :  0.11  119H :  0.11  400O :  0.11  462H :  0.10   94O :  0.10  275H :  0.10  341H :  0.10  337O :  0.10
   21H :  0.10   26H :  0.10  132H :  0.10  467H :  0.09  374H :  0.09  226O :  0.09   11H :  0.09    9H :  0.09  210H :  0.08  265O :  0.08   35H :  0.08  138H :  0.08
  104H :  0.08  444H :  0.07  102H :  0.07   27H :  0.07  521H :  0.07
   10 LP   *******   0.01   2.39003  -0.21803   9.37477  103O :  3.70  340O :  2.99   58O :  2.83  160O :  2.15  505O :  2.11  115O :  2.10  484O :  1.93  175O :  1.84  166O :  1.84   79O :  1.84   13O :  1.81  415O :  1.67
  181O :  1.61  523O :  1.56  442O :  1.51   70O :  1.50  499O :  1.49  172O :  1.47  136O :  1.37  241O :  1.36  142O :  1.36  331O :  1.33   76O :  1.26   28O :  1.26
   40O :  1.23   43O :  1.23  202O :  1.23   52O :  1.21  409O :  1.20   10O :  1.19  388O :  1.17  463O :  1.17   82O :  1.16  163O :  1.13  148O :  1.11  208O :  1.08
  217O :  1.08  235O :  1.07  178O :  1.06   16O :  1.04  514O :  1.03  424O :  1.02  520O :  0.99  199O :  0.98    4O :  0.98    1O :  0.95  466O :  0.90  205O :  0.90
  391O :  0.89  112O :  0.88   64O :  0.85  358O :  0.85  478O :  0.85  427O :  0.84  454O :  0.83   25O :  0.83   34O :  0.83  469O :  0.82  394O :  0.80  379O :  0.80
  481O :  0.78   19O :  0.78  250O :  0.78  292O :  0.77  133O :  0.77  496O :  0.75  490O :  0.75  127O :  0.74  445O :  0.73  124O :  0.71  460O :  0.70  526O :  0.70
  529O :  0.69   97O :  0.69   88O :  0.69   31O :  0.68  322O :  0.66  487O :  0.66  439O :  0.65  256O :  0.64  280O :  0.64  193O :  0.64  421O :  0.62  118O :  0.62
  352O :  0.61  502O :  0.60  211O :  0.59  301O :  0.59  277O :  0.58   49O :  0.57   37O :  0.57  100O :  0.55  403O :  0.55  367O :  0.54  316O :  0.53  493O :  0.53
  220O :  0.50    7O :  0.49  253O :  0.49  121O :  0.49  259O :  0.49  298O :  0.49  184O :  0.48  274O :  0.48  319O :  0.46   85O :  0.43  397O :  0.43  151O :  0.43
   67O :  0.43  268O :  0.42   61O :  0.41  349O :  0.41  247O :  0.40  343O :  0.40  310O :  0.38  289O :  0.38  430O :  0.38  229O :  0.37  232O :  0.36   44H :  0.35
   15H :  0.35  508O :  0.33  328O :  0.33  376O :  0.32  304O :  0.32   73O :  0.32  475O :  0.29  370O :  0.29  436O :  0.29  190O :  0.29  457O :  0.28  262O :  0.28
  196O :  0.27  361O :  0.27  271O :  0.27  130O :  0.27  472O :  0.27  223O :  0.26  373O :  0.26  325O :  0.26  169O :  0.25  145O :  0.25   17H :  0.25  355O :  0.24
  187O :  0.24  433O :  0.24  412O :  0.23  244O :  0.22  139O :  0.22  418O :  0.22  143H :  0.22  333H :  0.21  364O :  0.21  106O :  0.21  313O :  0.20  382O :  0.20
   46O :  0.20   59H :  0.19  448O :  0.19  480H :  0.19  173H :  0.18  517O :  0.18   98H :  0.18  286O :  0.18   36H :  0.18   55O :  0.17  416H :  0.17   91O :  0.17
  406O :  0.15  324H :  0.15  451O :  0.15   22O :  0.15  243H :  0.15  525H :  0.15  334O :  0.15  120H :  0.14  346O :  0.14  295O :  0.14  344H :  0.14  491H :  0.14
  385O :  0.14  524H :  0.13  154O :  0.13  492H :  0.13  249H :  0.13  238O :  0.12  135H :  0.12  182H :  0.12  405H :  0.12  230H :  0.11  214O :  0.11  283O :  0.11
   77H :  0.11  511O :  0.11  307O :  0.11  432H :  0.11  119H :  0.10  400O :  0.10  462H :  0.10   94O :  0.10  275H :  0.10  337O :  0.10  132H :  0.10   21H :  0.10
   26H :  0.10  467H :  0.09  341H :  0.09  374H :  0.09  226O :  0.09   11H :  0.09    9H :  0.09  210H :  0.08  265O :  0.08   35H :  0.08  138H :  0.08  444H :  0.07
  507H :  0.07
   11 LP   *******   0.01  -6.22044   2.38149   4.41212  160O :  3.57  340O :  2.81   58O :  2.66  505O :  1.98  115O :  1.97  484O :  1.81  175O :  1.73  166O :  1.73   79O :  1.73   13O :  1.73  103O :  1.66  415O :  1.56
  181O :  1.51  523O :  1.47  442O :  1.41   70O :  1.40  499O :  1.40  172O :  1.38  136O :  1.29  241O :  1.28  142O :  1.26  331O :  1.25   76O :  1.18   28O :  1.18
  202O :  1.15   43O :  1.15   52O :  1.14   40O :  1.13  409O :  1.13   10O :  1.12  388O :  1.10  463O :  1.10   82O :  1.09  163O :  1.06  148O :  1.04  217O :  1.02
  208O :  1.01  235O :  1.01  178O :  0.99   16O :  0.98  514O :  0.97  424O :  0.95  520O :  0.95  199O :  0.92    4O :  0.92    1O :  0.89  466O :  0.84  205O :  0.84
  391O :  0.84  112O :  0.82   64O :  0.80  358O :  0.80  478O :  0.79  427O :  0.79  454O :  0.78   25O :  0.78   34O :  0.77  469O :  0.77  394O :  0.75  379O :  0.75
   19O :  0.73  481O :  0.73  250O :  0.73  292O :  0.72  133O :  0.72  496O :  0.71  490O :  0.70  127O :  0.70  124O :  0.69  445O :  0.69  460O :  0.66  529O :  0.65
   97O :  0.65   88O :  0.65  526O :  0.65   31O :  0.63  322O :  0.62  487O :  0.62  439O :  0.61  256O :  0.60  280O :  0.60  193O :  0.60  421O :  0.58  118O :  0.58
  352O :  0.58  502O :  0.57  211O :  0.56  301O :  0.55  277O :  0.54   49O :  0.53   37O :  0.53  100O :  0.52  403O :  0.51  367O :  0.51  316O :  0.50  493O :  0.50
  220O :  0.47    7O :  0.46  253O :  0.46  121O :  0.46  259O :  0.46  298O :  0.46  274O :  0.45  184O :  0.43  319O :  0.43   85O :  0.41  397O :  0.40  151O :  0.40
   67O :  0.40  268O :  0.40   61O :  0.39  349O :  0.38  343O :  0.37  247O :  0.37  310O :  0.36  289O :  0.35  430O :  0.35  229O :  0.34   15H :  0.34  232O :  0.34
   44H :  0.33  508O :  0.31  328O :  0.31  376O :  0.30   73O :  0.30  304O :  0.30  475O :  0.27  370O :  0.27  436O :  0.27  190O :  0.27  457O :  0.26  262O :  0.26
  196O :  0.26  361O :  0.25  271O :  0.25  472O :  0.25  130O :  0.25  373O :  0.24  223O :  0.24  325O :  0.24  169O :  0.24  145O :  0.24   17H :  0.23  355O :  0.23
  187O :  0.22  433O :  0.22  412O :  0.21  244O :  0.21  139O :  0.20  418O :  0.20  143H :  0.20  333H :  0.20  364O :  0.20  106O :  0.20  313O :  0.19  382O :  0.19
   46O :  0.19   59H :  0.18  448O :  0.18  480H :  0.18  173H :  0.17   98H :  0.17  517O :  0.17   55O :  0.17  286O :  0.17   36H :  0.16  416H :  0.16   91O :  0.16
  451O :  0.15  406O :  0.15  324H :  0.14   22O :  0.14  243H :  0.14  525H :  0.14  334O :  0.14  120H :  0.14  346O :  0.13  295O :  0.13  344H :  0.13  491H :  0.13
  385O :  0.13  154O :  0.12  524H :  0.12  492H :  0.12  249H :  0.12  238O :  0.12  135H :  0.12  182H :  0.11  405H :  0.11  230H :  0.11  283O :  0.11  214O :  0.11
   77H :  0.11  511O :  0.10  125H :  0.10  307O :  0.10  432H :  0.10  119H :  0.10  400O :  0.10  462H :  0.10   94O :  0.10  275H :  0.09  337O :  0.09   21H :  0.09
   26H :  0.09  132H :  0.09  467H :  0.09  341H :  0.08  374H :  0.08  226O :  0.08   11H :  0.08    9H :  0.08  265O :  0.08  210H :  0.08   35H :  0.07  138H :  0.07
  104H :  0.07
   12 LP   *******   0.01   6.82398   1.36513  11.35073  523O :  3.56  340O :  2.70   58O :  2.56  160O :  1.94  505O :  1.91  115O :  1.89  484O :  1.74  175O :  1.66  166O :  1.66   79O :  1.66   13O :  1.63  103O :  1.59
  415O :  1.50  181O :  1.45  442O :  1.36   70O :  1.35  499O :  1.34  172O :  1.33  136O :  1.24  241O :  1.22  142O :  1.22  331O :  1.20   76O :  1.14   28O :  1.13
   40O :  1.11   43O :  1.11  202O :  1.11   52O :  1.09  409O :  1.09   10O :  1.07  388O :  1.06  463O :  1.06   82O :  1.05  163O :  1.02  148O :  1.00  208O :  0.98
  217O :  0.98  235O :  0.97  178O :  0.95   16O :  0.94  514O :  0.93  424O :  0.92  520O :  0.91  199O :  0.88    4O :  0.88    1O :  0.86  466O :  0.81  205O :  0.81
  391O :  0.80  112O :  0.79   64O :  0.77  358O :  0.77  478O :  0.76  427O :  0.76  454O :  0.75   25O :  0.75  469O :  0.74   34O :  0.74  394O :  0.72  379O :  0.72
  481O :  0.70   19O :  0.70  250O :  0.70  292O :  0.69  127O :  0.69  133O :  0.69  496O :  0.68  490O :  0.67  124O :  0.67  460O :  0.63  445O :  0.63  526O :  0.63
  529O :  0.63   97O :  0.62   88O :  0.62   31O :  0.61  322O :  0.60  487O :  0.60  439O :  0.59  256O :  0.58  280O :  0.58  193O :  0.57  421O :  0.56  118O :  0.56
  352O :  0.55  502O :  0.54  211O :  0.53  301O :  0.53  277O :  0.52   49O :  0.51   37O :  0.51  100O :  0.50  403O :  0.49  367O :  0.49  316O :  0.48  493O :  0.48
  220O :  0.45    7O :  0.44  253O :  0.44  121O :  0.44  259O :  0.44  298O :  0.44  184O :  0.43  274O :  0.43  319O :  0.41   85O :  0.39  397O :  0.39  151O :  0.38
   67O :  0.38  268O :  0.38   61O :  0.37  349O :  0.37  343O :  0.36  247O :  0.35  310O :  0.35  289O :  0.34  430O :  0.34  229O :  0.33  232O :  0.32   44H :  0.32
   15H :  0.32  508O :  0.30  328O :  0.30  376O :  0.29   73O :  0.29  304O :  0.29  475O :  0.26  370O :  0.26  436O :  0.26  190O :  0.26  457O :  0.25  262O :  0.25
  196O :  0.25  361O :  0.24  271O :  0.24  472O :  0.24  130O :  0.24  373O :  0.23  223O :  0.23  325O :  0.23  169O :  0.23  145O :  0.23   17H :  0.22  355O :  0.22
  187O :  0.21  433O :  0.21  412O :  0.21  244O :  0.20  139O :  0.20  418O :  0.20  143H :  0.19  333H :  0.19  364O :  0.19  106O :  0.19  313O :  0.18  382O :  0.18
   46O :  0.18   59H :  0.17  448O :  0.17  480H :  0.17  173H :  0.17  517O :  0.16   98H :  0.16   55O :  0.16  286O :  0.16   36H :  0.16  416H :  0.15   91O :  0.15
  406O :  0.14  324H :  0.14  451O :  0.14   22O :  0.14  243H :  0.13  334O :  0.13  120H :  0.13  346O :  0.13  295O :  0.13  344H :  0.13  491H :  0.12  385O :  0.12
  525H :  0.12  154O :  0.12  492H :  0.11  249H :  0.11  238O :  0.11  135H :  0.11  182H :  0.10  405H :  0.10  230H :  0.10  214O :  0.10  283O :  0.10   77H :  0.10
  125H :  0.10  511O :  0.10  307O :  0.10  432H :  0.10  119H :  0.09  400O :  0.09  462H :  0.09  524H :  0.09   94O :  0.09  275H :  0.09  337O :  0.09   21H :  0.09
   26H :  0.09  132H :  0.08  467H :  0.08  341H :  0.08  374H :  0.08  226O :  0.08   11H :  0.08    9H :  0.08  210H :  0.07  265O :  0.07   35H :  0.07  138H :  0.07
   13 LP   *******   0.01  -3.00414  12.86766   0.51949  136O :  3.24  340O :  2.70   58O :  2.56  160O :  1.94  505O :  1.91  115O :  1.89  484O :  1.74  175O :  1.67  166O :  1.66   79O :  1.66   13O :  1.63  103O :  1.59
  415O :  1.50  181O :  1.45  523O :  1.41  442O :  1.36   70O :  1.35  499O :  1.34  172O :  1.33  241O :  1.23  142O :  1.22  331O :  1.20   76O :  1.14   28O :  1.14
   40O :  1.12   43O :  1.11  202O :  1.11   52O :  1.09  409O :  1.09   10O :  1.07  388O :  1.06  463O :  1.06   82O :  1.05  163O :  1.02  148O :  1.00  208O :  0.98
  217O :  0.98  235O :  0.97  178O :  0.95   16O :  0.94  514O :  0.93  424O :  0.92  520O :  0.91  199O :  0.89    4O :  0.88    1O :  0.86  466O :  0.81  205O :  0.81
  391O :  0.80  112O :  0.80   64O :  0.77  358O :  0.77  478O :  0.76  427O :  0.76  454O :  0.75   25O :  0.75   34O :  0.74  469O :  0.74  394O :  0.72  379O :  0.72
  481O :  0.70   19O :  0.70  250O :  0.70  292O :  0.69  133O :  0.69  496O :  0.68  490O :  0.67  127O :  0.67  124O :  0.67  445O :  0.66  460O :  0.63  526O :  0.63
  529O :  0.63   97O :  0.63   88O :  0.62   31O :  0.61  322O :  0.60  487O :  0.60  439O :  0.59  256O :  0.58  280O :  0.58  193O :  0.57  421O :  0.56  118O :  0.56
  352O :  0.55  502O :  0.54  211O :  0.54  301O :  0.53  277O :  0.52   37O :  0.51   49O :  0.51  100O :  0.50  403O :  0.49  367O :  0.49  316O :  0.48  493O :  0.48
  220O :  0.45    7O :  0.44  253O :  0.44  121O :  0.44  259O :  0.44  298O :  0.44  184O :  0.43  274O :  0.43  319O :  0.41   85O :  0.39  397O :  0.39  151O :  0.39
   67O :  0.38  268O :  0.38   61O :  0.37  349O :  0.37  343O :  0.36  247O :  0.36  310O :  0.35  289O :  0.34  430O :  0.34  229O :  0.33  232O :  0.32   44H :  0.32
   15H :  0.32  508O :  0.30  328O :  0.30  376O :  0.29   73O :  0.29  304O :  0.29  475O :  0.26  370O :  0.26  436O :  0.26  190O :  0.26  457O :  0.25  262O :  0.25
  196O :  0.25  361O :  0.25  271O :  0.24  472O :  0.24  130O :  0.24  373O :  0.23  223O :  0.23  169O :  0.23  145O :  0.23   17H :  0.22  355O :  0.22  187O :  0.22
  433O :  0.21  412O :  0.21  325O :  0.20  244O :  0.20  139O :  0.20  418O :  0.20  143H :  0.19  333H :  0.19  364O :  0.19  106O :  0.19  313O :  0.18  382O :  0.18
   46O :  0.18   59H :  0.17  448O :  0.17  480H :  0.17  173H :  0.17  517O :  0.16   98H :  0.16  286O :  0.16   55O :  0.16   36H :  0.16  416H :  0.15   91O :  0.15
  406O :  0.14  324H :  0.14  451O :  0.14   22O :  0.14  243H :  0.13  525H :  0.13  334O :  0.13  120H :  0.13  346O :  0.13  295O :  0.13  344H :  0.13  491H :  0.13
  385O :  0.12  154O :  0.12  524H :  0.12  492H :  0.11  249H :  0.11  238O :  0.11  135H :  0.11  182H :  0.10  405H :  0.10  230H :  0.10  214O :  0.10  283O :  0.10
   77H :  0.10  511O :  0.10  125H :  0.10  307O :  0.10  432H :  0.10  119H :  0.09  400O :  0.09  462H :  0.09   94O :  0.09  275H :  0.09  337O :  0.09   21H :  0.09
   26H :  0.09  132H :  0.08  467H :  0.08  341H :  0.08  374H :  0.08  226O :  0.08   11H :  0.08    9H :  0.08  210H :  0.07  265O :  0.07   35H :  0.07
   14 LP   *******   0.01  -2.11182  12.28201   7.77582  202O :  2.92  340O :  2.66   58O :  2.52  160O :  1.92  505O :  1.88  115O :  1.87  484O :  1.72  175O :  1.64  166O :  1.64   79O :  1.64   13O :  1.61  103O :  1.57
  415O :  1.48  181O :  1.44  523O :  1.39  442O :  1.34   70O :  1.33  499O :  1.32  172O :  1.31  136O :  1.22  241O :  1.22  142O :  1.21  331O :  1.19   76O :  1.12
   28O :  1.11   40O :  1.10   43O :  1.09  409O :  1.09   52O :  1.08   10O :  1.06  388O :  1.05  463O :  1.04   82O :  1.04  163O :  1.01  148O :  0.99  208O :  0.97
  217O :  0.96  235O :  0.96  178O :  0.94   16O :  0.93  514O :  0.92  424O :  0.91  520O :  0.90  199O :  0.87    4O :  0.87    1O :  0.85  466O :  0.80  205O :  0.80
  391O :  0.79  112O :  0.78   64O :  0.76  358O :  0.76  478O :  0.75  427O :  0.75  454O :  0.74   25O :  0.74  469O :  0.74   34O :  0.73  394O :  0.71  379O :  0.71
  481O :  0.70   19O :  0.69  250O :  0.69  292O :  0.68  133O :  0.68  496O :  0.67  490O :  0.66  127O :  0.66  124O :  0.66  445O :  0.65  460O :  0.63  526O :  0.62
  529O :  0.62   97O :  0.62   88O :  0.62   31O :  0.60  322O :  0.59  487O :  0.59  439O :  0.58  256O :  0.57  280O :  0.57  193O :  0.57  421O :  0.55  118O :  0.55
  352O :  0.55  502O :  0.54  211O :  0.53  301O :  0.53  277O :  0.51   49O :  0.51   37O :  0.51  100O :  0.49  403O :  0.49  367O :  0.48  316O :  0.47  493O :  0.47
  220O :  0.45    7O :  0.44  253O :  0.43  121O :  0.43  259O :  0.43  298O :  0.43  184O :  0.43  274O :  0.42  319O :  0.41   85O :  0.39  397O :  0.38  151O :  0.38
   67O :  0.38  268O :  0.38   61O :  0.37  349O :  0.36  343O :  0.35  247O :  0.35  310O :  0.34  289O :  0.34  430O :  0.33  229O :  0.33  232O :  0.32   44H :  0.32
   15H :  0.31  508O :  0.29  328O :  0.29  376O :  0.29   73O :  0.28  304O :  0.28  475O :  0.26  370O :  0.26  436O :  0.25  190O :  0.25  457O :  0.25  262O :  0.25
  196O :  0.24  361O :  0.24  271O :  0.24  472O :  0.24  130O :  0.23  373O :  0.23  223O :  0.23  325O :  0.23  169O :  0.23  145O :  0.23   17H :  0.22  355O :  0.22
  187O :  0.21  433O :  0.21  412O :  0.20  244O :  0.20  139O :  0.19  418O :  0.19  143H :  0.19  333H :  0.19  364O :  0.19  106O :  0.19  313O :  0.18  382O :  0.18
   46O :  0.18  448O :  0.17   59H :  0.17  480H :  0.17  173H :  0.16  517O :  0.16   98H :  0.16  286O :  0.16   55O :  0.16   36H :  0.16  416H :  0.15   91O :  0.15
  406O :  0.14  324H :  0.14  451O :  0.14   22O :  0.13  243H :  0.13  525H :  0.13  334O :  0.13  346O :  0.13  120H :  0.13  295O :  0.12  344H :  0.12  491H :  0.12
  385O :  0.12  154O :  0.12  524H :  0.11  492H :  0.11  249H :  0.11  238O :  0.11  135H :  0.11  182H :  0.10  405H :  0.10  230H :  0.10  214O :  0.10  283O :  0.10
   77H :  0.10  511O :  0.10  125H :  0.10  307O :  0.10  432H :  0.09  119H :  0.09  400O :  0.09  462H :  0.09   94O :  0.09  275H :  0.09  337O :  0.09   21H :  0.09
   26H :  0.09  132H :  0.08  467H :  0.08  341H :  0.08  374H :  0.08  226O :  0.08    9H :  0.08   11H :  0.08  210H :  0.07  265O :  0.07   35H :  0.07
   15 LP   *******   0.01  -3.17181  22.32071 -39.93460  340O :  2.59   43O :  2.57   58O :  2.46  160O :  1.87  505O :  1.84  115O :  1.82  484O :  1.67  175O :  1.60  166O :  1.60   79O :  1.60   13O :  1.57  103O :  1.53
  415O :  1.45  181O :  1.40  523O :  1.36  442O :  1.31   70O :  1.30  499O :  1.29  172O :  1.27  136O :  1.19  241O :  1.18  142O :  1.18  331O :  1.16   76O :  1.10
   28O :  1.09   44H :  1.07   40O :  1.07   52O :  1.07  202O :  1.07  409O :  1.05   10O :  1.03  388O :  1.02  463O :  1.02   82O :  1.01  163O :  0.98  148O :  0.97
  208O :  0.94  217O :  0.94  235O :  0.93  178O :  0.92   16O :  0.91  514O :  0.89  424O :  0.88  520O :  0.88  199O :  0.85    4O :  0.85    1O :  0.83  466O :  0.78
  205O :  0.78  391O :  0.77  112O :  0.76   64O :  0.74  358O :  0.74  478O :  0.73  427O :  0.72  454O :  0.72   25O :  0.72   34O :  0.72  469O :  0.71  394O :  0.69
  379O :  0.69  481O :  0.68   19O :  0.68  250O :  0.67  292O :  0.67  133O :  0.66  496O :  0.65  490O :  0.65  127O :  0.64  124O :  0.64  445O :  0.64  460O :  0.61
  526O :  0.61  529O :  0.60   97O :  0.60   88O :  0.60  322O :  0.58  487O :  0.57   31O :  0.57  439O :  0.56  256O :  0.56  280O :  0.55  193O :  0.55  118O :  0.54
  421O :  0.53  352O :  0.53  502O :  0.52  211O :  0.51  301O :  0.51  277O :  0.50   49O :  0.49   37O :  0.49  100O :  0.48  403O :  0.48  367O :  0.47  316O :  0.46
  493O :  0.46  220O :  0.44    7O :  0.43  253O :  0.42  121O :  0.42  259O :  0.42  298O :  0.42  184O :  0.41  274O :  0.41  319O :  0.40   85O :  0.38  397O :  0.37
  151O :  0.37   67O :  0.37  268O :  0.37   61O :  0.36  349O :  0.35  247O :  0.34  343O :  0.34  310O :  0.34  430O :  0.33  289O :  0.33  229O :  0.32  232O :  0.31
   15H :  0.31  508O :  0.29  328O :  0.28  376O :  0.28  304O :  0.28   73O :  0.28  475O :  0.25  370O :  0.25  436O :  0.25  190O :  0.25  457O :  0.24  262O :  0.24
  196O :  0.24  361O :  0.24  271O :  0.23  472O :  0.23  130O :  0.23  373O :  0.22  223O :  0.22  325O :  0.22  169O :  0.22  145O :  0.22   17H :  0.21  355O :  0.21
  187O :  0.21  433O :  0.20  412O :  0.20  244O :  0.19  139O :  0.19  418O :  0.19  143H :  0.19  333H :  0.19  364O :  0.19  106O :  0.18  313O :  0.18  382O :  0.17
   46O :  0.17   59H :  0.17  448O :  0.17  480H :  0.16  517O :  0.16   98H :  0.16  286O :  0.15   55O :  0.15  173H :  0.15   36H :  0.15  416H :  0.14   91O :  0.14
  406O :  0.13  324H :  0.13  451O :  0.13  120H :  0.13   22O :  0.13  243H :  0.13  525H :  0.13  334O :  0.13  346O :  0.12  295O :  0.12  344H :  0.12  491H :  0.12
  385O :  0.12  154O :  0.11  524H :  0.11  492H :  0.11  249H :  0.11  238O :  0.11  135H :  0.11  405H :  0.10  182H :  0.10  230H :  0.10  214O :  0.10  283O :  0.10
   77H :  0.10  511O :  0.10  125H :  0.09  307O :  0.09  400O :  0.09  432H :  0.09  462H :  0.09   94O :  0.09  275H :  0.09  337O :  0.09   21H :  0.08   26H :  0.08
  132H :  0.08  467H :  0.08  341H :  0.08  374H :  0.08  226O :  0.08   11H :  0.08    9H :  0.08  119H :  0.07  210H :  0.07  265O :  0.07
   16 LP   *******   0.01  -8.54493  -0.62568   7.83015   79O :  3.19  340O :  2.49   58O :  2.36  160O :  1.80  505O :  1.76  115O :  1.75  484O :  1.61  166O :  1.54  175O :  1.53   13O :  1.53  103O :  1.47  415O :  1.39
  181O :  1.35  523O :  1.30  442O :  1.26   70O :  1.25  499O :  1.24  172O :  1.23  136O :  1.14  241O :  1.14  142O :  1.13  331O :  1.11   76O :  1.05   28O :  1.05
   40O :  1.03   43O :  1.03  202O :  1.03   52O :  1.01  409O :  1.01   10O :  0.99  388O :  0.98  463O :  0.98   82O :  0.97  163O :  0.94  148O :  0.92  208O :  0.92
  217O :  0.90  235O :  0.90  178O :  0.88   16O :  0.87  514O :  0.86  424O :  0.85  520O :  0.84  199O :  0.82    4O :  0.81    1O :  0.80  466O :  0.75  205O :  0.75
  391O :  0.74  112O :  0.74   64O :  0.71  358O :  0.71  478O :  0.70  427O :  0.70  454O :  0.70   25O :  0.69   34O :  0.69  469O :  0.69  394O :  0.67  379O :  0.66
  481O :  0.65  250O :  0.65  292O :  0.64  133O :  0.64   19O :  0.64  496O :  0.63  490O :  0.62  127O :  0.62  124O :  0.62  445O :  0.61  460O :  0.59  526O :  0.59
  529O :  0.58   97O :  0.58   88O :  0.58   31O :  0.56  322O :  0.55  487O :  0.55  439O :  0.54  256O :  0.53  280O :  0.53  193O :  0.53  421O :  0.52  118O :  0.52
  352O :  0.51  502O :  0.50  211O :  0.49  301O :  0.49  277O :  0.48   49O :  0.47   37O :  0.47  100O :  0.46  403O :  0.46  367O :  0.45  316O :  0.44  493O :  0.44
  220O :  0.42    7O :  0.41  253O :  0.41  121O :  0.41  259O :  0.41  298O :  0.41   15H :  0.40  184O :  0.40  274O :  0.40  319O :  0.38   85O :  0.36  397O :  0.36
  151O :  0.36   67O :  0.36  268O :  0.35   61O :  0.35  349O :  0.34  343O :  0.33  247O :  0.33  310O :  0.32  289O :  0.31  430O :  0.31  229O :  0.31  232O :  0.30
   44H :  0.30  508O :  0.27  328O :  0.27  376O :  0.27   73O :  0.27  304O :  0.27  475O :  0.24  370O :  0.24  436O :  0.24  190O :  0.24  457O :  0.23  262O :  0.23
  196O :  0.23  361O :  0.23  271O :  0.23  472O :  0.22  373O :  0.22  130O :  0.22  223O :  0.21  325O :  0.21  169O :  0.21  145O :  0.21   17H :  0.21  355O :  0.20
  187O :  0.20  433O :  0.20  412O :  0.19  244O :  0.19  139O :  0.18  418O :  0.18  143H :  0.18  333H :  0.18  364O :  0.18  106O :  0.17  313O :  0.17  382O :  0.17
   46O :  0.17   59H :  0.16  448O :  0.16  480H :  0.16  173H :  0.15   98H :  0.15  517O :  0.15  286O :  0.15   55O :  0.15   36H :  0.15  416H :  0.14   91O :  0.14
  406O :  0.13  324H :  0.13   22O :  0.13  243H :  0.12  525H :  0.12  451O :  0.12  334O :  0.12  120H :  0.12  346O :  0.12  295O :  0.12  344H :  0.12  491H :  0.12
  385O :  0.11  154O :  0.11  524H :  0.11  492H :  0.11  249H :  0.10  238O :  0.10  135H :  0.10  182H :  0.10  405H :  0.10  230H :  0.10  214O :  0.09  283O :  0.09
   77H :  0.09  511O :  0.09  125H :  0.09  307O :  0.09  374H :  0.09  432H :  0.09   21H :  0.09  119H :  0.09  400O :  0.09  462H :  0.09   94O :  0.08  275H :  0.08
  337O :  0.08   26H :  0.08  132H :  0.08  467H :  0.08  341H :  0.08  226O :  0.07   11H :  0.07    9H :  0.07
   17 LP   *******   0.01   1.33652   5.96178   1.44825   28O :  2.67  340O :  2.49   58O :  2.36  160O :  1.80  505O :  1.76  115O :  1.75  484O :  1.61  175O :  1.54  166O :  1.54   79O :  1.53   13O :  1.51  103O :  1.47
  415O :  1.39  181O :  1.35  523O :  1.30  442O :  1.26   70O :  1.25  499O :  1.24  172O :  1.23  136O :  1.15  241O :  1.14  142O :  1.13  331O :  1.11   76O :  1.05
   40O :  1.03   43O :  1.03  202O :  1.01   52O :  1.01  409O :  1.01   10O :  0.99  388O :  0.98  463O :  0.98   82O :  0.97  163O :  0.94  148O :  0.92  217O :  0.90
  208O :  0.90  235O :  0.90  178O :  0.88   16O :  0.87  514O :  0.86  424O :  0.85  520O :  0.83  199O :  0.82    4O :  0.81    1O :  0.80  466O :  0.75  205O :  0.75
  391O :  0.74  112O :  0.74   64O :  0.71  358O :  0.71  478O :  0.70  427O :  0.70  454O :  0.70   25O :  0.69   34O :  0.69  469O :  0.68  394O :  0.67  379O :  0.66
  481O :  0.65   19O :  0.65  250O :  0.65  292O :  0.64  133O :  0.64  496O :  0.63  490O :  0.62  127O :  0.62  124O :  0.62  445O :  0.61  460O :  0.59  526O :  0.58
  529O :  0.58   97O :  0.58   88O :  0.58   31O :  0.56  322O :  0.55  487O :  0.55  439O :  0.54  256O :  0.53  280O :  0.53  193O :  0.53  421O :  0.52  118O :  0.52
  352O :  0.51  502O :  0.50  211O :  0.49  301O :  0.49  277O :  0.48   49O :  0.47   37O :  0.47  100O :  0.46  403O :  0.46  367O :  0.45  316O :  0.44  493O :  0.44
    7O :  0.43  220O :  0.42  253O :  0.41  121O :  0.41  259O :  0.41  298O :  0.40  184O :  0.40  274O :  0.40  319O :  0.38   85O :  0.36  397O :  0.36  151O :  0.36
   67O :  0.35  268O :  0.35   61O :  0.35  349O :  0.34  343O :  0.33  247O :  0.33  310O :  0.32  289O :  0.31  430O :  0.31  229O :  0.31  232O :  0.30   44H :  0.30
   15H :  0.29  508O :  0.27  328O :  0.27  376O :  0.27   73O :  0.27  304O :  0.27  475O :  0.24  370O :  0.24  436O :  0.24  190O :  0.24  457O :  0.23  262O :  0.23
  196O :  0.23  325O :  0.23  361O :  0.23  271O :  0.23  472O :  0.22  130O :  0.22  373O :  0.21  223O :  0.21  169O :  0.21  145O :  0.21   17H :  0.21  355O :  0.20
  187O :  0.20  433O :  0.20  412O :  0.19  244O :  0.19  139O :  0.18  418O :  0.18  143H :  0.18  333H :  0.18  364O :  0.18  106O :  0.17  313O :  0.17  382O :  0.17
   46O :  0.17   59H :  0.16  480H :  0.16  173H :  0.15  517O :  0.15   98H :  0.15    9H :  0.15  286O :  0.15   55O :  0.15  448O :  0.15   36H :  0.15  416H :  0.14
   91O :  0.14  406O :  0.13  324H :  0.13  451O :  0.13   22O :  0.13  243H :  0.12  525H :  0.12  334O :  0.12  120H :  0.12  346O :  0.12  295O :  0.12  344H :  0.12
  491H :  0.12  385O :  0.11  154O :  0.11  524H :  0.11  492H :  0.11  249H :  0.10  238O :  0.10  135H :  0.10  182H :  0.10  230H :  0.10  405H :  0.10  214O :  0.09
  283O :  0.09   77H :  0.09  511O :  0.09  125H :  0.09  307O :  0.09  432H :  0.09  119H :  0.09  400O :  0.09  462H :  0.09   94O :  0.08  275H :  0.08  337O :  0.08
   21H :  0.08   26H :  0.08  132H :  0.08  467H :  0.08  341H :  0.08  374H :  0.08  226O :  0.07   11H :  0.07
   18 LP   *******   0.01  16.13104  -0.13520   0.54780   70O :  3.14  340O :  2.33   58O :  2.21  160O :  1.68  505O :  1.65  115O :  1.63  484O :  1.50  175O :  1.44   79O :  1.43  166O :  1.43   13O :  1.41  103O :  1.37
  415O :  1.30  181O :  1.26  523O :  1.22  442O :  1.17  499O :  1.16  172O :  1.15  136O :  1.07  241O :  1.06  142O :  1.06  331O :  1.04   76O :  0.98   28O :  0.98
   40O :  0.96   43O :  0.96  202O :  0.96   52O :  0.94  409O :  0.94   10O :  0.93  388O :  0.91  463O :  0.91   82O :  0.91  163O :  0.88  148O :  0.86  208O :  0.84
  217O :  0.84  235O :  0.84  178O :  0.82   16O :  0.81  514O :  0.80  424O :  0.79  520O :  0.79  199O :  0.76    4O :  0.76    1O :  0.74  391O :  0.71  466O :  0.70
  205O :  0.70  112O :  0.69   64O :  0.66  358O :  0.66  478O :  0.66  427O :  0.65  454O :  0.65   25O :  0.65   34O :  0.64  469O :  0.64  394O :  0.62  379O :  0.62
  481O :  0.61   19O :  0.61  250O :  0.60  292O :  0.60  133O :  0.60  496O :  0.59  490O :  0.58  127O :  0.58  124O :  0.58  445O :  0.57  460O :  0.55  526O :  0.55
  529O :  0.54   97O :  0.54   88O :  0.54   31O :  0.53  322O :  0.52  487O :  0.51  439O :  0.51  193O :  0.50  256O :  0.50  280O :  0.50  421O :  0.48  118O :  0.48
  352O :  0.48  502O :  0.47  211O :  0.46  301O :  0.46  277O :  0.45   49O :  0.44   37O :  0.44  100O :  0.43  403O :  0.43  367O :  0.42  316O :  0.41  493O :  0.41
  220O :  0.39  259O :  0.39    7O :  0.38  253O :  0.38  274O :  0.38  121O :  0.38  298O :  0.38  184O :  0.37  319O :  0.36   85O :  0.34  397O :  0.33  151O :  0.33
   67O :  0.33  268O :  0.33   61O :  0.32  349O :  0.32  343O :  0.31  247O :  0.31  310O :  0.30  289O :  0.29  430O :  0.29  229O :  0.28  232O :  0.28   44H :  0.28
   15H :  0.27  508O :  0.26  328O :  0.26  376O :  0.25   73O :  0.25  304O :  0.25  475O :  0.23  370O :  0.23  436O :  0.22  190O :  0.22  457O :  0.22  262O :  0.22
  196O :  0.21  361O :  0.21  271O :  0.21  472O :  0.21  130O :  0.20  373O :  0.20  223O :  0.20  325O :  0.20  169O :  0.20  145O :  0.20   17H :  0.19  355O :  0.19
  187O :  0.19  433O :  0.18  412O :  0.18  244O :  0.17  139O :  0.17  418O :  0.17  143H :  0.17  333H :  0.17  364O :  0.17  106O :  0.16  313O :  0.16  382O :  0.16
   46O :  0.15   59H :  0.15  448O :  0.15  480H :  0.15  173H :  0.14  517O :  0.14   98H :  0.14  286O :  0.14   55O :  0.14   36H :  0.14  416H :  0.13   91O :  0.13
  406O :  0.12  324H :  0.12  451O :  0.12   22O :  0.12  243H :  0.12  525H :  0.12  334O :  0.11  120H :  0.11  346O :  0.11  295O :  0.11  344H :  0.11  491H :  0.11
  385O :  0.11  154O :  0.10  524H :  0.10  492H :  0.10  249H :  0.10  238O :  0.10  135H :  0.10  182H :  0.09  405H :  0.09  230H :  0.09  214O :  0.09  283O :  0.09
   77H :  0.09  511O :  0.09  125H :  0.08  307O :  0.08  432H :  0.08  119H :  0.08  400O :  0.08  275H :  0.08  462H :  0.08   94O :  0.08  337O :  0.08   21H :  0.08
   26H :  0.07  132H :  0.07  467H :  0.07  341H :  0.07  374H :  0.07
   19 LP   *******   0.01   2.41597  10.22330  10.29402  241O :  2.76  340O :  2.34   58O :  2.21  160O :  1.68  505O :  1.65  115O :  1.64  484O :  1.51  175O :  1.44  166O :  1.44   79O :  1.44   13O :  1.41  103O :  1.38
  415O :  1.30  181O :  1.26  523O :  1.22  442O :  1.18   70O :  1.17  499O :  1.16  172O :  1.15  136O :  1.07  142O :  1.06  331O :  1.04   76O :  0.99   28O :  0.98
   40O :  0.96   43O :  0.96  202O :  0.96   52O :  0.95  409O :  0.94   10O :  0.93  388O :  0.92  463O :  0.91   82O :  0.91  163O :  0.88  148O :  0.87  208O :  0.85
  217O :  0.85  235O :  0.84  178O :  0.82   16O :  0.82  514O :  0.80  424O :  0.80  520O :  0.79  199O :  0.77    4O :  0.76    1O :  0.75  466O :  0.70  205O :  0.70
  391O :  0.70  112O :  0.69   64O :  0.67  358O :  0.66  478O :  0.66  427O :  0.65  454O :  0.65   25O :  0.65   34O :  0.65  469O :  0.64  394O :  0.63  379O :  0.62
  481O :  0.61   19O :  0.61  250O :  0.61  292O :  0.60  133O :  0.60  496O :  0.59  490O :  0.58  127O :  0.58  124O :  0.58  445O :  0.57  460O :  0.55  526O :  0.55
  529O :  0.54   97O :  0.54   88O :  0.54   31O :  0.53  322O :  0.52  487O :  0.52  439O :  0.51  256O :  0.50  280O :  0.50  193O :  0.50  421O :  0.49  118O :  0.49
  352O :  0.48  502O :  0.47  211O :  0.46  301O :  0.46  277O :  0.45   49O :  0.44   37O :  0.44  100O :  0.43  403O :  0.43  367O :  0.42  316O :  0.42  493O :  0.41
  220O :  0.39    7O :  0.38  253O :  0.38  121O :  0.38  259O :  0.38  298O :  0.38  184O :  0.37  274O :  0.37  319O :  0.36   85O :  0.34  397O :  0.33  151O :  0.33
   67O :  0.33  268O :  0.33   61O :  0.32  349O :  0.32  343O :  0.31  247O :  0.31  310O :  0.30  289O :  0.29  430O :  0.29  229O :  0.29  232O :  0.28   44H :  0.28
   15H :  0.27  508O :  0.26  328O :  0.26  376O :  0.25   73O :  0.25  304O :  0.25  475O :  0.23  370O :  0.23  436O :  0.22  190O :  0.22  457O :  0.22  262O :  0.22
  361O :  0.21  271O :  0.21  196O :  0.21  472O :  0.21  130O :  0.21  373O :  0.20  223O :  0.20  325O :  0.20  169O :  0.20  145O :  0.20   17H :  0.19  355O :  0.19
  187O :  0.19  433O :  0.18  412O :  0.18  244O :  0.17  139O :  0.17  418O :  0.17  143H :  0.17  333H :  0.17  364O :  0.17  106O :  0.16  313O :  0.16  382O :  0.16
   46O :  0.16   59H :  0.15   36H :  0.15  448O :  0.15  480H :  0.15  173H :  0.14  517O :  0.14   98H :  0.14  286O :  0.14   55O :  0.14  416H :  0.13   91O :  0.13
  406O :  0.12  324H :  0.12  451O :  0.12   22O :  0.12  525H :  0.12  334O :  0.11  120H :  0.11  346O :  0.11  295O :  0.11  344H :  0.11  491H :  0.11  385O :  0.11
  524H :  0.10  154O :  0.10  492H :  0.10  249H :  0.10  238O :  0.10  135H :  0.10  243H :  0.09  182H :  0.09  405H :  0.09  230H :  0.09  214O :  0.09  283O :  0.09
   77H :  0.09  511O :  0.09  125H :  0.09  307O :  0.08  432H :  0.08  119H :  0.08  400O :  0.08  462H :  0.08   94O :  0.08  275H :  0.08  337O :  0.08   21H :  0.08
   26H :  0.07  132H :  0.07  467H :  0.07  341H :  0.07  374H :  0.07
   20 LP   *******   0.01  18.93728   9.42650   1.16992  514O :  2.70  340O :  2.20   58O :  2.08  160O :  1.58  505O :  1.55  115O :  1.54  484O :  1.42  175O :  1.35   79O :  1.35  166O :  1.35   13O :  1.33  103O :  1.30
  415O :  1.22  181O :  1.18  523O :  1.15  442O :  1.11   70O :  1.10  499O :  1.09  172O :  1.08  136O :  1.01  241O :  1.00  142O :  1.00  331O :  0.98   76O :  0.93
   28O :  0.92   40O :  0.91   43O :  0.90  202O :  0.90   52O :  0.89  409O :  0.89   10O :  0.87  388O :  0.86  463O :  0.86   82O :  0.85  163O :  0.83  148O :  0.81
  208O :  0.80  217O :  0.80  235O :  0.79  178O :  0.77   16O :  0.77  424O :  0.75  520O :  0.74  199O :  0.72    4O :  0.72    1O :  0.70  466O :  0.66  205O :  0.66
  391O :  0.65  112O :  0.65   64O :  0.62  358O :  0.62  478O :  0.62  427O :  0.62  454O :  0.61   25O :  0.61   34O :  0.60  469O :  0.60  394O :  0.59  379O :  0.58
  481O :  0.57   19O :  0.57  250O :  0.57  292O :  0.56  133O :  0.56  496O :  0.56  490O :  0.55  127O :  0.54  124O :  0.54  445O :  0.54  460O :  0.52  526O :  0.51
  529O :  0.51   97O :  0.51   88O :  0.51   31O :  0.50  487O :  0.50  322O :  0.49  439O :  0.48  256O :  0.47  280O :  0.47  193O :  0.47  421O :  0.46  118O :  0.46
  352O :  0.45  502O :  0.44  211O :  0.44  301O :  0.43  277O :  0.42   49O :  0.42   37O :  0.42  100O :  0.41  403O :  0.40  367O :  0.40  316O :  0.39  493O :  0.39
  220O :  0.37    7O :  0.36  253O :  0.36  121O :  0.36  298O :  0.36  259O :  0.36  184O :  0.35  274O :  0.35  319O :  0.34  268O :  0.32   85O :  0.32  397O :  0.31
  151O :  0.31   67O :  0.31   61O :  0.30  349O :  0.30  343O :  0.29  247O :  0.29  310O :  0.28  289O :  0.28  430O :  0.28  229O :  0.27  232O :  0.26   44H :  0.26
   15H :  0.26  508O :  0.24  328O :  0.24  376O :  0.24   73O :  0.23  304O :  0.23  475O :  0.21  370O :  0.21  436O :  0.21  190O :  0.21  457O :  0.21  262O :  0.20
  196O :  0.20  361O :  0.20  271O :  0.20  472O :  0.19  130O :  0.19  373O :  0.19  223O :  0.19  325O :  0.19  169O :  0.19  145O :  0.19   17H :  0.18  355O :  0.18
  187O :  0.17  433O :  0.17  412O :  0.17  244O :  0.16  139O :  0.16  418O :  0.16  143H :  0.16  333H :  0.16  364O :  0.16  106O :  0.15  313O :  0.15  382O :  0.15
   46O :  0.15   59H :  0.14  448O :  0.14  480H :  0.14  173H :  0.14  517O :  0.13   98H :  0.13  286O :  0.13   55O :  0.13   36H :  0.13  416H :  0.12   91O :  0.12
  406O :  0.11  324H :  0.11  451O :  0.11   22O :  0.11  243H :  0.11  525H :  0.11  334O :  0.11  120H :  0.11  346O :  0.11  295O :  0.10  344H :  0.10  491H :  0.10
  385O :  0.10  154O :  0.10  524H :  0.09  492H :  0.09  249H :  0.09  238O :  0.09  135H :  0.09  182H :  0.09  230H :  0.08  405H :  0.08  214O :  0.08  283O :  0.08
   77H :  0.08  511O :  0.08  125H :  0.08  307O :  0.08  432H :  0.08  119H :  0.08  400O :  0.08  462H :  0.08   94O :  0.07  275H :  0.07  337O :  0.07   21H :  0.07
   26H :  0.07
   21 LP   *******   0.01   4.66235   3.12484 -12.58570  172O :  2.59  340O :  2.20   58O :  2.09  160O :  1.59  505O :  1.56  115O :  1.55  484O :  1.42  175O :  1.36  166O :  1.36   79O :  1.36   13O :  1.33  103O :  1.30
  415O :  1.23  181O :  1.19  523O :  1.15  442O :  1.11   70O :  1.10  499O :  1.10  136O :  1.01  241O :  1.01  142O :  1.00  331O :  0.98   76O :  0.93   28O :  0.93
   40O :  0.91  202O :  0.91   43O :  0.90   52O :  0.89  409O :  0.89   10O :  0.88  388O :  0.86  463O :  0.86   82O :  0.86  163O :  0.83  148O :  0.82  208O :  0.80
  217O :  0.80  235O :  0.79  178O :  0.78   16O :  0.77  514O :  0.76  424O :  0.75  520O :  0.74  199O :  0.72    4O :  0.72    1O :  0.70  466O :  0.66  205O :  0.66
  391O :  0.66  112O :  0.65  427O :  0.64  358O :  0.63  478O :  0.62   64O :  0.62  454O :  0.62   25O :  0.61   34O :  0.61  469O :  0.61  394O :  0.59  379O :  0.59
  481O :  0.58   19O :  0.57  250O :  0.57  292O :  0.57  133O :  0.56  496O :  0.56  490O :  0.55  127O :  0.55  124O :  0.54  445O :  0.54  460O :  0.52  526O :  0.52
  529O :  0.51   97O :  0.51   88O :  0.51   31O :  0.50  322O :  0.49  487O :  0.49  439O :  0.48  256O :  0.47  280O :  0.47  193O :  0.47  421O :  0.46  118O :  0.46
  352O :  0.45  502O :  0.44  211O :  0.44  301O :  0.44  277O :  0.42   49O :  0.42   37O :  0.42  100O :  0.41  367O :  0.40  403O :  0.40  316O :  0.39  493O :  0.39
  220O :  0.37    7O :  0.36  253O :  0.36  121O :  0.36  259O :  0.36  298O :  0.36  184O :  0.35  274O :  0.35  319O :  0.34   85O :  0.32  397O :  0.32  151O :  0.31
   67O :  0.31  268O :  0.31   61O :  0.31  343O :  0.29  247O :  0.29  349O :  0.29  310O :  0.28  289O :  0.28  430O :  0.28  229O :  0.27  232O :  0.26   44H :  0.26
   15H :  0.26  508O :  0.24  328O :  0.24  376O :  0.24   73O :  0.23  304O :  0.23  475O :  0.22  370O :  0.21  436O :  0.21  190O :  0.21  457O :  0.21  262O :  0.20
  196O :  0.20  361O :  0.20  271O :  0.20  472O :  0.20  130O :  0.19  373O :  0.19  223O :  0.19  325O :  0.19  169O :  0.19  145O :  0.19   17H :  0.18  355O :  0.18
  187O :  0.18  433O :  0.17  412O :  0.17  244O :  0.16  139O :  0.16  418O :  0.16  143H :  0.16  333H :  0.16  364O :  0.16  106O :  0.15  313O :  0.15  382O :  0.15
   46O :  0.15   59H :  0.14  448O :  0.14  480H :  0.14   98H :  0.13  517O :  0.13  286O :  0.13   55O :  0.13   36H :  0.13  416H :  0.12   91O :  0.12  406O :  0.11
  324H :  0.11  451O :  0.11   22O :  0.11  173H :  0.11  243H :  0.11  525H :  0.11  334O :  0.11  120H :  0.11  346O :  0.11  295O :  0.10  344H :  0.10  491H :  0.10
  385O :  0.10  154O :  0.10  524H :  0.09  238O :  0.09  492H :  0.09  249H :  0.09  135H :  0.09  405H :  0.09  182H :  0.09  230H :  0.08  214O :  0.08  283O :  0.08
   77H :  0.08  511O :  0.08  125H :  0.08  307O :  0.08  432H :  0.08  119H :  0.08  400O :  0.08  462H :  0.08   94O :  0.07  275H :  0.07  337O :  0.07   21H :  0.07
   26H :  0.07
[...]
   146   1 h    0.882 --   145 o    0.809
   147   1 h    0.896 --   145 o    0.841
   148   8 o    1.847 --   149 h    0.886   150 h    0.871
   149   1 h    0.899 --   148 o    0.886
   150   1 h    0.893 --   148 o    0.871
   151   8 o    1.867 --   153 h    0.821   152 h    0.819
   152   1 h    0.887 --   151 o    0.819
   153   1 h    0.890 --   151 o    0.821
   154   8 o    1.837 --   155 h    0.844   156 h    0.828
   155   1 h    0.893 --   154 o    0.844
   156   1 h    0.892 --   154 o    0.828
   157   8 o    1.888 --   159 h    0.809   158 h    0.778
   158   1 h    0.873 --   157 o    0.778
   159   1 h    0.875 --   157 o    0.809
   160   8 o    1.822 --   162 h    0.858   161 h    0.833
   161   1 h    0.889 --   160 o    0.833
   162   1 h    0.890 --   160 o    0.858
   163   8 o    1.847 --   165 h    0.868   164 h    0.799
   164   1 h    0.884 --   163 o    0.799
   165   1 h    0.897 --   163 o    0.868
   166   8 o    1.887 --   168 h    0.826   167 h    0.807
   167   1 h    0.874 --   166 o    0.807
   168   1 h    0.887 --   166 o    0.826
   169   8 o    1.863 --   170 h    0.856   171 h    0.854
   170   1 h    0.894 --   169 o    0.856
   171   1 h    0.893 --   169 o    0.854
   172   8 o    1.841 --   173 h    0.859   174 h    0.836
   173   1 h    0.898 --   172 o    0.859
   174   1 h    0.884 --   172 o    0.836
   175   8 o    1.849 --   177 h    0.834   176 h    0.764
   176   1 h    0.872 --   175 o    0.764    19 o    0.101
   177   1 h    0.895 --   175 o    0.834
   178   8 o    1.847 --   179 h    0.883   180 h    0.825
   179   1 h    0.902 --   178 o    0.883
   180   1 h    0.882 --   178 o    0.825
   181   8 o    1.864 --   183 h    0.823   182 h    0.809
   182   1 h    0.887 --   181 o    0.809
   183   1 h    0.879 --   181 o    0.823
   184   8 o    1.899 --   185 h    0.824   186 h    0.823
   185   1 h    0.884 --   184 o    0.824
   186   1 h    0.891 --   184 o    0.823
   187   8 o    1.827 --   189 h    0.876   188 h    0.837
   188   1 h    0.888 --   187 o    0.837
   189   1 h    0.898 --   187 o    0.876
   190   8 o    1.854 --   191 h    0.867   192 h    0.780
   191   1 h    0.895 --   190 o    0.867
   192   1 h    0.869 --   190 o    0.780
   193   8 o    1.866 --   194 h    0.824   195 h    0.811
   194   1 h    0.888 --   193 o    0.824
   195   1 h    0.880 --   193 o    0.811
   196   8 o    1.826 --   198 h    0.844   197 h    0.824
   197   1 h    0.891 --   196 o    0.824
   198   1 h    0.890 --   196 o    0.844
   199   8 o    1.862 --   201 h    0.824   200 h    0.812
   200   1 h    0.873 --   199 o    0.812
   201   1 h    0.878 --   199 o    0.824
   202   8 o    1.805 --   204 h    0.857   203 h    0.835
   203   1 h    0.890 --   202 o    0.835
   204   1 h    0.895 --   202 o    0.857
   205   8 o    1.834 --   207 h    0.872   206 h    0.850
   206   1 h    0.887 --   205 o    0.850
   207   1 h    0.900 --   205 o    0.872
   208   8 o    1.845 --   210 h    0.832   209 h    0.822
   209   1 h    0.890 --   208 o    0.822
   210   1 h    0.881 --   208 o    0.832
   211   8 o    1.880 --   213 h    0.817   212 h    0.816
   212   1 h    0.877 --   211 o    0.816
   213   1 h    0.878 --   211 o    0.817
   214   8 o    1.854 --   215 h    0.867   216 h    0.796
   215   1 h    0.896 --   214 o    0.867
   216   1 h    0.875 --   214 o    0.796
   217   8 o    1.834 --   219 h    0.832   218 h    0.816
   218   1 h    0.889 --   217 o    0.816
   219   1 h    0.873 --   217 o    0.832
   220   8 o    1.866 --   222 h    0.849   221 h    0.827
   221   1 h    0.881 --   220 o    0.827
   222   1 h    0.897 --   220 o    0.849
   223   8 o    1.895 --   225 h    0.824   224 h    0.801
   224   1 h    0.884 --   223 o    0.801
   225   1 h    0.892 --   223 o    0.824
   226   8 o    1.891 --   228 h    0.834   227 h    0.810   338 h    0.117
   227   1 h    0.883 --   226 o    0.810
   228   1 h    0.894 --   226 o    0.834
   229   8 o    1.848 --   231 h    0.829   230 h    0.783
   230   1 h    0.870 --   229 o    0.783
   231   1 h    0.894 --   229 o    0.829
   232   8 o    1.846 --   233 h    0.886   234 h    0.835
   233   1 h    0.904 --   232 o    0.886
   234   1 h    0.890 --   232 o    0.835
   235   8 o    1.839 --   236 h    0.853   237 h    0.831
   236   1 h    0.893 --   235 o    0.853
   237   1 h    0.883 --   235 o    0.831
   238   8 o    1.845 --   239 h    0.842   240 h    0.790
   239   1 h    0.887 --   238 o    0.842
   240   1 h    0.873 --   238 o    0.790
   241   8 o    1.826 --   242 h    0.886   243 h    0.871
   242   1 h    0.905 --   241 o    0.886
   243   1 h    0.893 --   241 o    0.871
   244   8 o    1.868 --   246 h    0.808   245 h    0.799
   245   1 h    0.888 --   244 o    0.799
   246   1 h    0.880 --   244 o    0.808
   247   8 o    1.855 --   249 h    0.846   248 h    0.840
   248   1 h    0.887 --   247 o    0.840
   249   1 h    0.896 --   247 o    0.846
   250   8 o    1.862 --   252 h    0.827   251 h    0.798
   251   1 h    0.877 --   250 o    0.798
   252   1 h    0.888 --   250 o    0.827
   253   8 o    1.871 --   254 h    0.887   255 h    0.853
   254   1 h    0.903 --   253 o    0.887
   255   1 h    0.891 --   253 o    0.853
   256   8 o    1.837 --   258 h    0.845   257 h    0.826
   257   1 h    0.888 --   256 o    0.826
   258   1 h    0.893 --   256 o    0.845
   259   8 o    1.899 --   261 h    0.825   260 h    0.807
   260   1 h    0.885 --   259 o    0.807
   261   1 h    0.885 --   259 o    0.825
   262   8 o    1.818 --   264 h    0.868   263 h    0.834
   263   1 h    0.893 --   262 o    0.834
   264   1 h    0.900 --   262 o    0.868
   265   8 o    1.837 --   266 h    0.855   267 h    0.838
   266   1 h    0.896 --   265 o    0.855
   267   1 h    0.890 --   265 o    0.838
   268   8 o    1.866 --   269 h    0.819   270 h    0.800
   269   1 h    0.878 --   268 o    0.819
   270   1 h    0.874 --   268 o    0.800
   271   8 o    1.875 --   272 h    0.911   273 h    0.760
   272   1 h    0.917 --   271 o    0.911
   273   1 h    0.867 --   271 o    0.760   100 o    0.101
   274   8 o    1.880 --   276 h    0.843   275 h    0.832
   275   1 h    0.892 --   274 o    0.832
   276   1 h    0.885 --   274 o    0.843
   277   8 o    1.837 --   279 h    0.830   278 h    0.829
   278   1 h    0.896 --   277 o    0.829
   279   1 h    0.889 --   277 o    0.830
   280   8 o    1.867 --   281 h    0.872   282 h    0.860
   281   1 h    0.895 --   280 o    0.872
   282   1 h    0.895 --   280 o    0.860
   283   8 o    1.856 --   284 h    0.872   285 h    0.839
   284   1 h    0.895 --   283 o    0.872
   285   1 h    0.895 --   283 o    0.839
   286   8 o    1.859 --   287 h    0.913   288 h    0.828
   287   1 h    0.920 --   286 o    0.913
   288   1 h    0.878 --   286 o    0.828
   289   8 o    1.855 --   291 h    0.870   290 h    0.840
   290   1 h    0.893 --   289 o    0.840
   291   1 h    0.897 --   289 o    0.870
   292   8 o    1.845 --   294 h    0.871   293 h    0.840
   293   1 h    0.892 --   292 o    0.840
   294   1 h    0.900 --   292 o    0.871
   295   8 o    1.835 --   297 h    0.872   296 h    0.848
   296   1 h    0.891 --   295 o    0.848
   297   1 h    0.901 --   295 o    0.872
   298   8 o    1.855 --   300 h    0.885   299 h    0.820
   299   1 h    0.878 --   298 o    0.820
   300   1 h    0.901 --   298 o    0.885
   301   8 o    1.853 --   303 h    0.870   302 h    0.839
   302   1 h    0.892 --   301 o    0.839
   303   1 h    0.897 --   301 o    0.870
   304   8 o    1.837 --   305 h    0.859   306 h    0.834
   305   1 h    0.895 --   304 o    0.859
   306   1 h    0.882 --   304 o    0.834
   307   8 o    1.867 --   309 h    0.845   308 h    0.839
   308   1 h    0.896 --   307 o    0.839
   309   1 h    0.896 --   307 o    0.845
   310   8 o    1.890 --   311 h    0.829   312 h    0.820
   311   1 h    0.885 --   310 o    0.829
   312   1 h    0.887 --   310 o    0.820
   313   8 o    1.850 --   314 h    0.876   315 h    0.749
   314   1 h    0.902 --   313 o    0.876
   315   1 h    0.868 --   313 o    0.749    79 o    0.111
   316   8 o    1.848 --   317 h    0.873   318 h    0.834
   317   1 h    0.897 --   316 o    0.873
   318   1 h    0.887 --   316 o    0.834
   319   8 o    1.868 --   321 h    0.904   320 h    0.836
   320   1 h    0.887 --   319 o    0.836
   321   1 h    0.913 --   319 o    0.904
   322   8 o    1.820 --   324 h    0.879   323 h    0.822
   323   1 h    0.886 --   322 o    0.822
   324   1 h    0.903 --   322 o    0.879
   325   8 o    1.860 --   327 h    0.846   326 h    0.817
   326   1 h    0.890 --   325 o    0.817
   327   1 h    0.888 --   325 o    0.846
   328   8 o    1.841 --   330 h    0.881   329 h    0.824
   329   1 h    0.888 --   328 o    0.824
   330   1 h    0.898 --   328 o    0.881
   331   8 o    1.857 --   333 h    0.844   332 h    0.839
   332   1 h    0.892 --   331 o    0.839
   333   1 h    0.890 --   331 o    0.844
   334   8 o    1.864 --   335 h    0.880   336 h    0.841
   335   1 h    0.899 --   334 o    0.880
   336   1 h    0.892 --   334 o    0.841
   337   8 o    1.854 --   339 h    0.901   338 h    0.751
   338   1 h    0.871 --   337 o    0.751   226 o    0.117
   339   1 h    0.912 --   337 o    0.901
   340   8 o    1.864 --   342 h    0.865   341 h    0.799
   341   1 h    0.885 --   340 o    0.799
   342   1 h    0.896 --   340 o    0.865
   343   8 o    1.874 --   344 h    0.846   345 h    0.810
   344   1 h    0.885 --   343 o    0.846
   345   1 h    0.880 --   343 o    0.810
   346   8 o    1.846 --   348 h    0.878   347 h    0.831
   347   1 h    0.882 --   346 o    0.831
   348   1 h    0.902 --   346 o    0.878
   349   8 o    1.861 --   351 h    0.841   350 h    0.803
   350   1 h    0.876 --   349 o    0.803
   351   1 h    0.892 --   349 o    0.841
   352   8 o    1.818 --   354 h    0.924   353 h    0.820
   353   1 h    0.888 --   352 o    0.820
   354   1 h    0.928 --   352 o    0.924
   355   8 o    1.830 --   357 h    0.860   356 h    0.836
   356   1 h    0.891 --   355 o    0.836
   357   1 h    0.893 --   355 o    0.860
   358   8 o    1.858 --   359 h    0.822   360 h    0.816
   359   1 h    0.887 --   358 o    0.822
   360   1 h    0.890 --   358 o    0.816
   361   8 o    1.842 --   362 h    0.881   363 h    0.866
   362   1 h    0.901 --   361 o    0.881
   363   1 h    0.895 --   361 o    0.866
   364   8 o    1.865 --   366 h    0.900   365 h    0.800
   365   1 h    0.881 --   364 o    0.800
   366   1 h    0.911 --   364 o    0.900
   367   8 o    1.823 --   368 h    0.886   369 h    0.857
   368   1 h    0.906 --   367 o    0.886
   369   1 h    0.894 --   367 o    0.857
   370   8 o    1.864 --   372 h    0.839   371 h    0.817
   371   1 h    0.885 --   370 o    0.817
   372   1 h    0.896 --   370 o    0.839
   373   8 o    1.813 --   375 h    0.918   374 h    0.828
   374   1 h    0.880 --   373 o    0.828
   375   1 h    0.921 --   373 o    0.918
   376   8 o    1.848 --   377 h    0.853   378 h    0.825
   377   1 h    0.900 --   376 o    0.853
   378   1 h    0.884 --   376 o    0.825
   379   8 o    1.852 --   381 h    0.895   380 h    0.846
   380   1 h    0.884 --   379 o    0.846
   381   1 h    0.903 --   379 o    0.895
   382   8 o    1.856 --   383 h    0.913   384 h    0.784
   383   1 h    0.919 --   382 o    0.913
   384   1 h    0.873 --   382 o    0.784
   385   8 o    1.872 --   386 h    0.864   387 h    0.812
   386   1 h    0.889 --   385 o    0.864
   387   1 h    0.886 --   385 o    0.812
   388   8 o    1.833 --   390 h    0.899   389 h    0.808
   389   1 h    0.874 --   388 o    0.808
   390   1 h    0.910 --   388 o    0.899
   391   8 o    1.854 --   393 h    0.890   392 h    0.809
   392   1 h    0.880 --   391 o    0.809
   393   1 h    0.904 --   391 o    0.890
   394   8 o    1.851 --   396 h    0.835   395 h    0.830
   395   1 h    0.883 --   394 o    0.830
   396   1 h    0.892 --   394 o    0.835
   397   8 o    1.862 --   398 h    0.909   399 h    0.803
   398   1 h    0.915 --   397 o    0.909
   399   1 h    0.877 --   397 o    0.803
   400   8 o    1.842 --   401 h    0.850   402 h    0.793
   401   1 h    0.893 --   400 o    0.850
   402   1 h    0.874 --   400 o    0.793
   403   8 o    1.849 --   405 h    0.895   404 h    0.798
   404   1 h    0.876 --   403 o    0.798
   405   1 h    0.911 --   403 o    0.895
   406   8 o    1.903 --   408 h    0.841   407 h    0.820
   407   1 h    0.887 --   406 o    0.820
   408   1 h    0.885 --   406 o    0.841
   409   8 o    1.865 --   410 h    0.824   411 h    0.822
   410   1 h    0.879 --   409 o    0.824
   411   1 h    0.889 --   409 o    0.822
   412   8 o    1.871 --   413 h    0.880   414 h    0.787
   413   1 h    0.900 --   412 o    0.880
   414   1 h    0.878 --   412 o    0.787
   415   8 o    1.850 --   417 h    0.897   416 h    0.819
   416   1 h    0.874 --   415 o    0.819
   417   1 h    0.910 --   415 o    0.897
   418   8 o    1.851 --   420 h    0.899   419 h    0.815
   419   1 h    0.884 --   418 o    0.815
   420   1 h    0.909 --   418 o    0.899
   421   8 o    1.820 --   423 h    0.859   422 h    0.809
   422   1 h    0.885 --   421 o    0.809
   423   1 h    0.901 --   421 o    0.859
   424   8 o    1.833 --   426 h    0.870   425 h    0.850
   425   1 h    0.895 --   424 o    0.850
   426   1 h    0.903 --   424 o    0.870
   427   8 o    1.859 --   428 h    0.825   429 h    0.793
   428   1 h    0.885 --   427 o    0.825
   429   1 h    0.871 --   427 o    0.793
   430   8 o    1.856 --   431 h    0.863   432 h    0.804
   431   1 h    0.898 --   430 o    0.863
   432   1 h    0.880 --   430 o    0.804
   433   8 o    1.863 --   434 h    0.913   435 h    0.821
   434   1 h    0.918 --   433 o    0.913
   435   1 h    0.884 --   433 o    0.821
   436   8 o    1.835 --   437 h    0.860   438 h    0.843
   437   1 h    0.897 --   436 o    0.860
   438   1 h    0.887 --   436 o    0.843
   439   8 o    1.858 --   440 h    0.878   441 h    0.822
   440   1 h    0.901 --   439 o    0.878
   441   1 h    0.887 --   439 o    0.822
   442   8 o    1.815 --   443 h    0.879   444 h    0.830
   443   1 h    0.905 --   442 o    0.879
   444   1 h    0.893 --   442 o    0.830
   445   8 o    1.849 --   446 h    0.901   447 h    0.832
   446   1 h    0.910 --   445 o    0.901
   447   1 h    0.889 --   445 o    0.832
   448   8 o    1.838 --   450 h    0.857   449 h    0.761
   449   1 h    0.867 --   448 o    0.761
   450   1 h    0.895 --   448 o    0.857
   451   8 o    1.838 --   452 h    0.821   453 h    0.813
   452   1 h    0.882 --   451 o    0.821
   453   1 h    0.871 --   451 o    0.813
   454   8 o    1.839 --   456 h    0.840   455 h    0.801
   455   1 h    0.874 --   454 o    0.801
   456   1 h    0.895 --   454 o    0.840
   457   8 o    1.855 --   459 h    0.895   458 h    0.850
   458   1 h    0.890 --   457 o    0.850
   459   1 h    0.907 --   457 o    0.895
   460   8 o    1.830 --   461 h    0.873   462 h    0.861
   461   1 h    0.897 --   460 o    0.873
   462   1 h    0.892 --   460 o    0.861
   463   8 o    1.844 --   464 h    0.859   465 h    0.852
   464   1 h    0.892 --   463 o    0.859
   465   1 h    0.892 --   463 o    0.852
   466   8 o    1.837 --   468 h    0.908   467 h    0.772
   467   1 h    0.866 --   466 o    0.772
   468   1 h    0.916 --   466 o    0.908
   469   8 o    1.854 --   471 h    0.852   470 h    0.843
   470   1 h    0.888 --   469 o    0.843
   471   1 h    0.898 --   469 o    0.852
   472   8 o    1.853 --   473 h    0.853   474 h    0.831
   473   1 h    0.893 --   472 o    0.853
   474   1 h    0.885 --   472 o    0.831
   475   8 o    1.860 --   476 h    0.886   477 h    0.831
   476   1 h    0.900 --   475 o    0.886
   477   1 h    0.893 --   475 o    0.831
   478   8 o    1.861 --   480 h    0.872   479 h    0.859
   479   1 h    0.894 --   478 o    0.859
   480   1 h    0.895 --   478 o    0.872
   481   8 o    1.854 --   482 h    0.850   483 h    0.825
   482   1 h    0.899 --   481 o    0.850
   483   1 h    0.884 --   481 o    0.825
   484   8 o    1.858 --   485 h    0.837   486 h    0.788
   485   1 h    0.890 --   484 o    0.837
   486   1 h    0.870 --   484 o    0.788
   487   8 o    1.874 --   488 h    0.832   489 h    0.830
   488   1 h    0.894 --   487 o    0.832
   489   1 h    0.884 --   487 o    0.830
   490   8 o    1.867 --   491 h    0.814   492 h    0.811
   491   1 h    0.887 --   490 o    0.814
   492   1 h    0.884 --   490 o    0.811
   493   8 o    1.853 --   494 h    0.866   495 h    0.819
   494   1 h    0.902 --   493 o    0.866
   495   1 h    0.890 --   493 o    0.819
   496   8 o    1.857 --   497 h    0.914   498 h    0.787
   497   1 h    0.922 --   496 o    0.914
   498   1 h    0.879 --   496 o    0.787
   499   8 o    1.835 --   501 h    0.852   500 h    0.821
   500   1 h    0.885 --   499 o    0.821
   501   1 h    0.896 --   499 o    0.852
   502   8 o    1.819 --   503 h    0.848   504 h    0.832
   503   1 h    0.894 --   502 o    0.848
   504   1 h    0.891 --   502 o    0.832
   505   8 o    1.848 --   507 h    0.854   506 h    0.792
   506   1 h    0.879 --   505 o    0.792
   507   1 h    0.899 --   505 o    0.854
   508   8 o    1.842 --   510 h    0.859   509 h    0.844
   509   1 h    0.888 --   508 o    0.844
   510   1 h    0.899 --   508 o    0.859
   511   8 o    1.856 --   512 h    0.874   513 h    0.827
   512   1 h    0.898 --   511 o    0.874
   513   1 h    0.890 --   511 o    0.827
   514   8 o    1.872 --   515 h    0.849   516 h    0.848
   515   1 h    0.892 --   514 o    0.849
   516   1 h    0.894 --   514 o    0.848
   517   8 o    1.865 --   518 h    0.865   519 h    0.808
   518   1 h    0.897 --   517 o    0.865
   519   1 h    0.879 --   517 o    0.808
   520   8 o    1.833 --   522 h    0.814   521 h    0.782
   521   1 h    0.873 --   520 o    0.782
   522   1 h    0.891 --   520 o    0.814
   523   8 o    1.863 --   525 h    0.848   524 h    0.826
   524   1 h    0.876 --   523 o    0.826
   525   1 h    0.896 --   523 o    0.848
   526   8 o    1.843 --   527 h    0.856   528 h    0.808
   527   1 h    0.891 --   526 o    0.856
   528   1 h    0.880 --   526 o    0.808
   529   8 o    1.849 --   531 h    0.862   530 h    0.858
   530   1 h    0.887 --   529 o    0.858
   531   1 h    0.895 --   529 o    0.862
 ---------------------------------------------------------------------------

Topologies differ in total number of bonds
Writing topology from bond orders to xtbtopo.mol

molecular dipole:
                 x           y           z       tot (Debye)
 q only:       -1.074      -0.881      -1.616
   full:       -1.277      -1.871      -1.626       7.087
molecular quadrupole (traceless):
                xx          xy          yy          xz          yz          zz
 q only:      103.136       9.369     -22.289      10.477      -8.431     -80.847
  q+dip:      123.443      10.757     -28.637       7.500     -14.277     -94.806
   full:      124.133      11.606     -29.670       7.583     -14.792     -94.464


           -------------------------------------------------
          | TOTAL ENERGY             -901.204317769505 Eh   |
          | GRADIENT NORM               0.099134838954 Eh/α |
          | HOMO-LUMO GAP               6.736169330690 eV   |
           -------------------------------------------------

------------------------------------------------------------------------
 * finished run on 2022/11/17 at 06:55:19.795     
------------------------------------------------------------------------
 total:
 * wall-time:     0 d,  0 h,  0 min, 20.056 sec
 *  cpu-time:     0 d,  0 h,  0 min, 26.322 sec
 * ratio c/w:     1.312 speedup
 SCF:
 * wall-time:     0 d,  0 h,  0 min, 19.471 sec
 *  cpu-time:     0 d,  0 h,  0 min, 25.297 sec
 * ratio c/w:     1.299 speedup

