      -----------------------------------------------------------      
     |                   =====================                   |     
     |                           x T B                           |     
     |                   =====================                   |     
     |                         S. Grimme                         |     
     |          Mulliken Center for Theoretical Chemistry        |     
     |                    University of Bonn                     |     
      -----------------------------------------------------------      

   * xtb version 6.5.1 (579679a) compiled by 'ehlert@majestix' on 2022-07-11

   xtb is free software: you can redistribute it and/or modify it under
   the terms of the GNU Lesser General Public License as published by
   the Free Software Foundation, either version 3 of the License, or
   (at your option) any later version.
   
   xtb is distributed in the hope that it will be useful,
   but WITHOUT ANY WARRANTY; without even the implied warranty of
   MERCHANTABILITY or FITNESS FOR A PARTICULAR PURPOSE.  See the
   GNU Lesser General Public License for more details.
   
   Cite this work as:
   * C. Bannwarth, E. Caldeweyher, S. Ehlert, A. Hansen, P. Pracht,
     J. Seibert, S. Spicher, S. Grimme, WIREs Comput. Mol. Sci., 2020, 11,
     e01493. DOI: 10.1002/wcms.1493
   
   for GFN2-xTB:
   * C. Bannwarth, S. Ehlert and S. Grimme., J. Chem. Theory Comput., 2019,
     15, 1652-1671. DOI: 10.1021/acs.jctc.8b01176
   for GFN1-xTB:
   * S. Grimme, C. Bannwarth, P. Shushkov, J. Chem. Theory Comput., 2017,
     13, 1989-2009. DOI: 10.1021/acs.jctc.7b00118
   for GFN0-xTB:
   * P. Pracht, E. Caldeweyher, S. Ehlert, S. Grimme, ChemRxiv, 2019, preprint.
     DOI: 10.26434/chemrxiv.8326202.v1
   for GFN-FF:
   * S. Spicher and S. Grimme, Angew. Chem. Int. Ed., 2020, 59, 15665-15673.
     DOI: 10.1002/anie.202004239
   
   for ALPB and GBSA implicit solvation:
   * S. Ehlert, M. Stahn, S. Spicher, S. Grimme, J. Chem. Theory Comput.,
     2021, 17, 4250-4261. DOI: 10.1021/acs.jctc.1c00471
   
   for DFT-D4:
   * E. Caldeweyher, C. Bannwarth and S. Grimme, J. Chem. Phys., 2017,
     147, 034112. DOI: 10.1063/1.4993215
   * E. Caldeweyher, S. Ehlert, A. Hansen, H. Neugebauer, S. Spicher,
     C. Bannwarth and S. Grimme, J. Chem. Phys., 2019, 150, 154122.
     DOI: 10.1063/1.5090222
   * E. Caldeweyher, J.-M. Mewes, S. Ehlert and S. Grimme, Phys. Chem. Chem. Phys.
     2020, 22, 8499-8512. DOI: 10.1039/D0CP00502A
   
   for sTDA-xTB:
   * S. Grimme and C. Bannwarth, J. Chem. Phys., 2016, 145, 054103.
     DOI: 10.1063/1.4959605
   
   in the mass-spec context:
   * V. Asgeirsson, C. Bauer and S. Grimme, Chem. Sci., 2017, 8, 4879.
     DOI: 10.1039/c7sc00601b
   * J. Koopman and S. Grimme, ACS Omega 2019, 4, 12, 15120-15133.
     DOI: 10.1021/acsomega.9b02011
   
   for metadynamics refer to:
   * S. Grimme, J. Chem. Theory Comput., 2019, 155, 2847-2862
     DOI: 10.1021/acs.jctc.9b00143
   
   for SPH calculations refer to:
   * S. Spicher and S. Grimme, J. Chem. Theory Comput., 2021, 17, 1701-1714
     DOI: 10.1021/acs.jctc.0c01306
   
   with help from (in alphabetical order)
   P. Atkinson, C. Bannwarth, F. Bohle, G. Brandenburg, E. Caldeweyher
   M. Checinski, S. Dohm, S. Ehlert, S. Ehrlich, I. Gerasimov, C. Hölzer
   A. Katbashev, J. Koopman, C. Lavigne, S. Lehtola, F. März, M. Müller,
   F. Musil, H. Neugebauer, J. Pisarek, C. Plett, P. Pracht, F. Pultar,
   J. Seibert, P. Shushkov, S. Spicher, M. Stahn, M. Steiner, T. Strunk,
   J. Stückrath, T. Rose, and J. Unsleber
   
 * started run on 2022/11/17 at 06:54:49.175     

           -------------------------------------------------
          |                Calculation Setup                |
           -------------------------------------------------

          program call               : xtb xtbopt.coord --gfn2 --sp --gbsa water
          hostname                   : cn0363
          coordinate file            : xtbopt.coord
          omp threads                :                     2

   ID    Z sym.   atoms
    1    8 o      1, 4, 7, 10, 13, 16, 19, 22, 25, 28, 31, 34, 37, 40, 43,
                  46, 49, 52, 55, 58, 61, 64, 67, 70, 73, 76, 79, 82, 85, 88,
                  91, 94, 97, 100, 103, 106, 109, 112, 115, 118, 121, 124,
                  127, 130, 133, 136, 139, 142, 145, 148, 151, 154, 157, 160,
                  163, 166, 169, 172, 175, 178, 181, 184, 187, 190, 193, 196,
                  199, 202, 205, 208, 211, 214, 217, 220, 223, 226, 229, 232,
                  235, 238, 241, 244, 247, 250, 253, 256, 259, 262, 265, 268,
                  271, 274, 277, 280, 283, 286, 289, 292, 295, 298, 301, 304,
                  307, 310, 313, 316, 319, 322, 325, 328, 331, 334, 337, 340,
                  343, 346, 349, 352, 355, 358, 361, 364, 367, 370, 373, 376,
                  379, 382, 385, 388, 391, 394, 397, 400, 403, 406, 409, 412,
                  415, 418, 421, 424, 427, 430, 433, 436, 439, 442, 445, 448,
                  451, 454, 457, 460, 463, 466, 469, 472, 475, 478, 481, 484,
                  487, 490, 493, 496, 499, 502, 505, 508, 511, 514, 517, 520,
                  523, 526, 529
    2    1 h      2, 3, 5, 6, 8, 9, 11, 12, 14, 15, 17, 18, 20, 21, 23, 24,
                  26, 27, 29, 30, 32, 33, 35, 36, 38, 39, 41, 42, 44, 45, 47,
                  48, 50, 51, 53, 54, 56, 57, 59, 60, 62, 63, 65, 66, 68, 69,
                  71, 72, 74, 75, 77, 78, 80, 81, 83, 84, 86, 87, 89, 90, 92,
                  93, 95, 96, 98, 99, 101, 102, 104, 105, 107, 108, 110, 111,
                  113, 114, 116, 117, 119, 120, 122, 123, 125, 126, 128, 129,
                  131, 132, 134, 135, 137, 138, 140, 141, 143, 144, 146, 147,
                  149, 150, 152, 153, 155, 156, 158, 159, 161, 162, 164, 165,
                  167, 168, 170, 171, 173, 174, 176, 177, 179, 180, 182, 183,
                  185, 186, 188, 189, 191, 192, 194, 195, 197, 198, 200, 201,
                  203, 204, 206, 207, 209, 210, 212, 213, 215, 216, 218, 219,
                  221, 222, 224, 225, 227, 228, 230, 231, 233, 234, 236, 237,
                  239, 240, 242, 243, 245, 246, 248, 249, 251, 252, 254, 255,
                  257, 258, 260, 261, 263, 264, 266, 267, 269, 270, 272, 273,
                  275, 276, 278, 279, 281, 282, 284, 285, 287, 288, 290, 291,
                  293, 294, 296, 297, 299, 300, 302, 303, 305, 306, 308, 309,
                  311, 312, 314, 315, 317, 318, 320, 321, 323, 324, 326, 327,
                  329, 330, 332, 333, 335, 336, 338, 339, 341, 342, 344, 345,
                  347, 348, 350, 351, 353, 354, 356, 357, 359, 360, 362, 363,
                  365, 366, 368, 369, 371, 372, 374, 375, 377, 378, 380, 381,
                  383, 384, 386, 387, 389, 390, 392, 393, 395, 396, 398, 399,
                  401, 402, 404, 405, 407, 408, 410, 411, 413, 414, 416, 417,
                  419, 420, 422, 423, 425, 426, 428, 429, 431, 432, 434, 435,
                  437, 438, 440, 441, 443, 444, 446, 447, 449, 450, 452, 453,
                  455, 456, 458, 459, 461, 462, 464, 465, 467, 468, 470, 471,
                  473, 474, 476, 477, 479, 480, 482, 483, 485, 486, 488, 489,
                  491, 492, 494, 495, 497, 498, 500, 501, 503, 504, 506, 507,
                  509, 510, 512, 513, 515, 516, 518, 519, 521, 522, 524, 525,
                  527, 528, 530, 531

molecular fragmentation (1/2 indicates fragments):
111222222222222222222222222222222222222222222222222222222222222222222222
222222222222222222222222222222222222222222222222222222222222222222222222
222222222222222222222222222222222222222222222222222222222222222222222222
222222222222222222222222222222222222222222222222222222222222222222222222
222222222222222222222222222222222222222222222222222222222222222222222222
222222222222222222222222222222222222222222222222222222222222222222222222
222222222222222222222222222222222222222222222222222222222222222222222222
222222222222222222222222222
# atoms in fragment 1/2:     3   528
 fragment masses (1/2) :       18.02     3170.69
CMA distance (Bohr)    :   5.446
constraining FC (au)   :  0.0500

           -------------------------------------------------
          |                 G F N 2 - x T B                 |
           -------------------------------------------------

        Reference                      10.1021/acs.jctc.8b01176
      * Hamiltonian:
        H0-scaling (s, p, d)           1.850000    2.230000    2.230000
        zeta-weighting                 0.500000
      * Dispersion:
        s8                             2.700000
        a1                             0.520000
        a2                             5.000000
        s9                             5.000000
      * Repulsion:
        kExp                           1.500000    1.000000
        rExp                           1.000000
      * Coulomb:
        alpha                          2.000000
        third order                    shell-resolved
        anisotropic                    true
        a3                             3.000000
        a5                             4.000000
        cn-shift                       1.200000
        cn-exp                         4.000000
        max-rad                        5.000000

      * Solvation model:               GBSA
        Solvent                        water
        Parameter file                 internal GFN2-xTB/GBSA
        Dielectric constant                8.0200E+01
        Reference state                gsolv [1 M gas/solution]
        Free energy shift                  1.8574E-03 Eh       1.1656E+00 kcal/mol
        Temperature                        2.9815E+02 K
        Density                            1.0000E+00 kg/L
        Solvent mass                       1.8000E+01 g/mol
        Interaction kernel             Still
        Born radius scaling (c1)           1.5524E+00
        Born radii integrator          GBOBC
        Born offset                        2.4628E-02 a0       4.6540E-02 AA
        H-bond correction              true
        Ion screening                  false
        Surface tension                    1.0000E-05 Eh       1.5569E+01 dyn/cm
        Grid points                               230 per atom

          ...................................................
          :                      SETUP                      :
          :.................................................:
          :  # basis functions                1062          :
          :  # atomic orbitals                1062          :
          :  # shells                          708          :
          :  # electrons                      1416          :
          :  max. iterations                   250          :
          :  Hamiltonian                  GFN2-xTB          :
          :  restarted?                      false          :
          :  GBSA solvation                   true          :
          :  PC potential                    false          :
          :  electronic temp.          300.0000000     K    :
          :  accuracy                    1.0000000          :
          :  -> integral cutoff          0.2500000E+02      :
          :  -> integral neglect         0.1000000E-07      :
          :  -> SCF convergence          0.1000000E-05 Eh   :
          :  -> wf. convergence          0.1000000E-03 e    :
          :  Broyden damping             0.4000000          :
          ...................................................

 iter      E             dE          RMSdq      gap      omega  full diag
   1   -906.7819327 -0.906782E+03  0.408E+00    8.61       0.0  T
   2   -906.8432123 -0.612796E-01  0.241E+00    8.31       1.0  T
   3   -906.8686767 -0.254644E-01  0.228E-01    7.46       1.0  T
   4   -906.8725968 -0.392013E-02  0.499E-02    7.67       1.0  T
   5   -906.8727385 -0.141698E-03  0.313E-02    7.62       1.0  T
   6   -906.8727707 -0.321868E-04  0.341E-03    7.63       1.3  T
   7   -906.8727716 -0.947591E-06  0.813E-04    7.63       5.3  T
   8   -906.8727717 -0.305915E-07  0.447E-04    7.63       9.7  T

   *** convergence criteria satisfied after 8 iterations ***

         #    Occupation            Energy/Eh            Energy/eV
      -------------------------------------------------------------
         1        2.0000           -0.6612904             -17.9946
       ...           ...                  ...                  ...
       702        2.0000           -0.3481606              -9.4739
       703        2.0000           -0.3472436              -9.4490
       704        2.0000           -0.3457678              -9.4088
       705        2.0000           -0.3431479              -9.3375
       706        2.0000           -0.3394287              -9.2363
       707        2.0000           -0.3367271              -9.1628
       708        2.0000           -0.3328545              -9.0574 (HOMO)
       709                         -0.0525055              -1.4287 (LUMO)
       710                         -0.0459146              -1.2494
       711                         -0.0310239              -0.8442
       712                         -0.0268371              -0.7303
       713                         -0.0240756              -0.6551
       ...                                ...                  ...
      1062                          0.4917919              13.3823
      -------------------------------------------------------------
                  HL-Gap            0.2803490 Eh            7.6287 eV
             Fermi-level           -0.1926800 Eh           -5.2431 eV

 SCC (total)                   0 d,  0 h,  0 min,  8.499 sec
 SCC setup                      ...        0 min,  0.110 sec (  1.299%)
 Dispersion                     ...        0 min,  0.072 sec (  0.841%)
 classical contributions        ...        0 min,  0.016 sec (  0.184%)
 integral evaluation            ...        0 min,  0.588 sec (  6.915%)
 iterations                     ...        0 min,  2.885 sec ( 33.949%)
 molecular gradient             ...        0 min,  4.799 sec ( 56.464%)
 printout                       ...        0 min,  0.030 sec (  0.348%)

         :::::::::::::::::::::::::::::::::::::::::::::::::::::
         ::                     SUMMARY                     ::
         :::::::::::::::::::::::::::::::::::::::::::::::::::::
         :: total energy            -901.410630797906 Eh    ::
         :: total w/o Gsasa/hb      -901.222441549110 Eh    ::
         :: gradient norm              0.105079924894 Eh/a0 ::
         :: HOMO-LUMO gap              7.628684201101 eV    ::
         ::.................................................::
         :: SCC energy              -906.872771663592 Eh    ::
         :: -> isotropic ES            5.256550892334 Eh    ::
         :: -> anisotropic ES         -1.128783662394 Eh    ::
         :: -> anisotropic XC         -0.086435455043 Eh    ::
         :: -> dispersion             -0.532526594909 Eh    ::
         :: -> Gsolv                  -0.218161883148 Eh    ::
         ::    -> Gelec               -0.029972634352 Eh    ::
         ::    -> Gsasa                0.004408753963 Eh    ::
         ::    -> Ghb                 -0.194455445886 Eh    ::
         ::    -> Gshift               0.001857443127 Eh    ::
         :: repulsion energy           5.368290920950 Eh    ::
         :: add. restraining           0.000000000000 Eh    ::
         :: total charge               0.000000000000 e     ::
         :::::::::::::::::::::::::::::::::::::::::::::::::::::

           -------------------------------------------------
          |                Property Printout                |
           -------------------------------------------------

    * Orbital Energies and Occupations

         #    Occupation            Energy/Eh            Energy/eV
      -------------------------------------------------------------
         1        2.0000           -0.6612904             -17.9946
       ...           ...                  ...                  ...
       696        2.0000           -0.3563305              -9.6962
       697        2.0000           -0.3555777              -9.6758
       698        2.0000           -0.3553870              -9.6706
       699        2.0000           -0.3534517              -9.6179
       700        2.0000           -0.3528165              -9.6006
       701        2.0000           -0.3500966              -9.5266
       702        2.0000           -0.3481606              -9.4739
       703        2.0000           -0.3472436              -9.4490
       704        2.0000           -0.3457678              -9.4088
       705        2.0000           -0.3431479              -9.3375
       706        2.0000           -0.3394287              -9.2363
       707        2.0000           -0.3367271              -9.1628
       708        2.0000           -0.3328545              -9.0574 (HOMO)
       709                         -0.0525055              -1.4287 (LUMO)
       710                         -0.0459146              -1.2494
       711                         -0.0310239              -0.8442
       712                         -0.0268371              -0.7303
       713                         -0.0240756              -0.6551
       714                         -0.0159185              -0.4332
       715                         -0.0081202              -0.2210
       716                         -0.0041102              -0.1118
       717                         -0.0009391              -0.0256
       718                          0.0068594               0.1867
       719                          0.0078197               0.2128
       ...                                ...                  ...
      1062                          0.4917919              13.3823
      -------------------------------------------------------------
                  HL-Gap            0.2803490 Eh            7.6287 eV
             Fermi-level           -0.1926800 Eh           -5.2431 eV

     #   Z          covCN         q      C6AA      α(0)
     1   8 o        1.605    -0.698    27.648     7.097
     2   1 h        0.803     0.335     0.624     1.241
     3   1 h        0.802     0.348     0.593     1.210
     4   8 o        1.607    -0.681    27.216     7.041
     5   1 h        0.803     0.329     0.641     1.258
     6   1 h        0.804     0.350     0.588     1.205
     7   8 o        1.608    -0.673    26.999     7.013
     8   1 h        0.804     0.341     0.609     1.226
     9   1 h        0.804     0.341     0.609     1.226
    10   8 o        1.609    -0.677    27.107     7.027
    11   1 h        0.805     0.339     0.616     1.232
    12   1 h        0.804     0.358     0.571     1.187
    13   8 o        1.607    -0.690    27.453     7.072
    14   1 h        0.803     0.356     0.575     1.191
    15   1 h        0.804     0.348     0.592     1.209
    16   8 o        1.608    -0.682    27.226     7.042
    17   1 h        0.804     0.344     0.602     1.219
    18   1 h        0.804     0.318     0.669     1.285
    19   8 o        1.610    -0.665    26.784     6.985
    20   1 h        0.803     0.338     0.616     1.233
    21   1 h        0.805     0.337     0.620     1.236
    22   8 o        1.603    -0.714    28.098     7.154
    23   1 h        0.802     0.359     0.567     1.183
    24   1 h        0.803     0.322     0.660     1.276
    25   8 o        1.608    -0.672    26.967     7.009
    26   1 h        0.804     0.313     0.682     1.297
    27   1 h        0.804     0.344     0.601     1.218
    28   8 o        1.608    -0.667    26.846     6.993
    29   1 h        0.803     0.341     0.611     1.227
    30   1 h        0.804     0.342     0.608     1.225
    31   8 o        1.608    -0.676    27.081     7.023
    32   1 h        0.805     0.337     0.618     1.235
    33   1 h        0.803     0.352     0.584     1.200
    34   8 o        1.609    -0.669    26.891     6.999
    35   1 h        0.805     0.325     0.650     1.267
    36   1 h        0.803     0.334     0.627     1.244
    37   8 o        1.610    -0.672    26.988     7.012
    38   1 h        0.805     0.330     0.638     1.254
    39   1 h        0.803     0.343     0.605     1.222
    40   8 o        1.607    -0.686    27.342     7.057
    41   1 h        0.803     0.352     0.584     1.200
    42   1 h        0.805     0.322     0.658     1.274
    43   8 o        1.607    -0.674    27.042     7.018
    44   1 h        0.804     0.358     0.570     1.186
    45   1 h        0.804     0.326     0.648     1.264
    46   8 o        1.608    -0.653    26.490     6.946
    47   1 h        0.805     0.329     0.641     1.258
    48   1 h        0.803     0.345     0.599     1.216
    49   8 o        1.608    -0.684    27.282     7.050
    50   1 h        0.804     0.346     0.598     1.214
    51   1 h        0.804     0.354     0.579     1.195
    52   8 o        1.609    -0.666    26.811     6.988
    53   1 h        0.804     0.323     0.656     1.273
    54   1 h        0.804     0.327     0.645     1.262
    55   8 o        1.607    -0.688    27.382     7.062
    56   1 h        0.803     0.344     0.604     1.220
    57   1 h        0.805     0.334     0.626     1.243
    58   8 o        1.608    -0.675    27.055     7.020
    59   1 h        0.804     0.364     0.556     1.171
    60   1 h        0.804     0.345     0.599     1.216
    61   8 o        1.608    -0.657    26.603     6.961
    62   1 h        0.806     0.309     0.693     1.307
    63   1 h        0.802     0.354     0.578     1.195
    64   8 o        1.606    -0.682    27.225     7.042
    65   1 h        0.803     0.338     0.617     1.233
    66   1 h        0.804     0.327     0.645     1.262
    67   8 o        1.607    -0.693    27.534     7.082
    68   1 h        0.804     0.327     0.646     1.263
    69   1 h        0.802     0.353     0.581     1.197
    70   8 o        1.607    -0.676    27.085     7.024
    71   1 h        0.804     0.326     0.649     1.266
    72   1 h        0.803     0.351     0.585     1.202
    73   8 o        1.608    -0.666    26.829     6.991
    74   1 h        0.805     0.333     0.629     1.246
    75   1 h        0.803     0.354     0.579     1.195
    76   8 o        1.609    -0.683    27.270     7.048
    77   1 h        0.804     0.334     0.626     1.243
    78   1 h        0.805     0.337     0.620     1.237
    79   8 o        1.613    -0.681    27.218     7.041
    80   1 h        0.805     0.347     0.596     1.212
    81   1 h        0.804     0.364     0.557     1.172
    82   8 o        1.606    -0.689    27.416     7.067
    83   1 h        0.803     0.329     0.641     1.258
    84   1 h        0.803     0.364     0.557     1.173
    85   8 o        1.607    -0.691    27.486     7.076
    86   1 h        0.804     0.328     0.643     1.260
    87   1 h        0.803     0.354     0.580     1.196
    88   8 o        1.609    -0.667    26.860     6.995
    89   1 h        0.804     0.320     0.665     1.281
    90   1 h        0.804     0.324     0.653     1.269
    91   8 o        1.607    -0.682    27.227     7.042
    92   1 h        0.803     0.351     0.587     1.203
    93   1 h        0.805     0.324     0.653     1.270
    94   8 o        1.605    -0.662    26.726     6.977
    95   1 h        0.805     0.318     0.669     1.284
    96   1 h        0.802     0.347     0.595     1.212
    97   8 o        1.608    -0.677    27.107     7.027
    98   1 h        0.803     0.345     0.600     1.217
    99   1 h        0.805     0.337     0.620     1.237
   100   8 o        1.608    -0.684    27.281     7.049
   101   1 h        0.803     0.336     0.624     1.241
   102   1 h        0.804     0.362     0.562     1.177
   103   8 o        1.608    -0.678    27.129     7.030
   104   1 h        0.803     0.353     0.580     1.197
   105   1 h        0.805     0.339     0.615     1.232
   106   8 o        1.607    -0.673    27.008     7.014
   107   1 h        0.803     0.334     0.628     1.245
   108   1 h        0.804     0.328     0.641     1.258
   109   8 o        1.607    -0.700    27.704     7.104
   110   1 h        0.802     0.354     0.579     1.196
   111   1 h        0.803     0.346     0.597     1.214
   112   8 o        1.606    -0.680    27.186     7.037
   113   1 h        0.803     0.349     0.591     1.207
   114   1 h        0.803     0.340     0.611     1.228
   115   8 o        1.605    -0.693    27.516     7.080
   116   1 h        0.803     0.350     0.588     1.204
   117   1 h        0.803     0.354     0.580     1.196
   118   8 o        1.606    -0.693    27.534     7.082
   119   1 h        0.803     0.340     0.612     1.229
   120   1 h        0.803     0.348     0.593     1.210
   121   8 o        1.608    -0.680    27.175     7.036
   122   1 h        0.804     0.330     0.637     1.254
   123   1 h        0.804     0.355     0.577     1.193
   124   8 o        1.609    -0.669    26.889     6.999
   125   1 h        0.804     0.355     0.577     1.193
   126   1 h        0.805     0.324     0.653     1.269
   127   8 o        1.607    -0.693    27.528     7.081
   128   1 h        0.803     0.361     0.563     1.178
   129   1 h        0.804     0.342     0.608     1.225
   130   8 o        1.607    -0.683    27.270     7.048
   131   1 h        0.804     0.327     0.646     1.262
   132   1 h        0.803     0.347     0.595     1.212
   133   8 o        1.605    -0.685    27.326     7.055
   134   1 h        0.804     0.331     0.636     1.253
   135   1 h        0.803     0.349     0.590     1.206
   136   8 o        1.607    -0.672    26.972     7.009
   137   1 h        0.805     0.326     0.649     1.265
   138   1 h        0.802     0.335     0.624     1.241
   139   8 o        1.606    -0.670    26.934     7.004
   140   1 h        0.802     0.337     0.621     1.238
   141   1 h        0.805     0.314     0.680     1.295
   142   8 o        1.609    -0.665    26.792     6.986
   143   1 h        0.804     0.331     0.636     1.253
   144   1 h        0.805     0.325     0.651     1.268
   145   8 o        1.606    -0.688    27.392     7.064
   146   1 h        0.803     0.348     0.593     1.210
   147   1 h        0.804     0.326     0.647     1.263
   148   8 o        1.610    -0.646    26.313     6.923
   149   1 h        0.805     0.331     0.635     1.251
   150   1 h        0.805     0.335     0.623     1.240
   151   8 o        1.607    -0.674    27.037     7.018
   152   1 h        0.804     0.344     0.604     1.220
   153   1 h        0.804     0.325     0.649     1.266
   154   8 o        1.607    -0.679    27.170     7.035
   155   1 h        0.804     0.332     0.632     1.249
   156   1 h        0.803     0.329     0.640     1.257
   157   8 o        1.605    -0.693    27.519     7.080
   158   1 h        0.801     0.359     0.568     1.184
   159   1 h        0.803     0.353     0.581     1.197
   160   8 o        1.609    -0.675    27.053     7.020
   161   1 h        0.804     0.335     0.625     1.242
   162   1 h        0.805     0.335     0.624     1.241
   163   8 o        1.607    -0.674    27.036     7.018
   164   1 h        0.802     0.343     0.605     1.222
   165   1 h        0.805     0.328     0.642     1.259
   166   8 o        1.608    -0.666    26.831     6.991
   167   1 h        0.804     0.356     0.575     1.191
   168   1 h        0.804     0.334     0.626     1.243
   169   8 o        1.608    -0.669    26.908     7.001
   170   1 h        0.804     0.340     0.612     1.229
   171   1 h        0.804     0.335     0.624     1.240
   172   8 o        1.609    -0.678    27.122     7.029
   173   1 h        0.805     0.327     0.645     1.262
   174   1 h        0.804     0.348     0.594     1.210
   175   8 o        1.602    -0.712    28.027     7.145
   176   1 h        0.801     0.362     0.561     1.177
   177   1 h        0.803     0.328     0.643     1.259
   178   8 o        1.609    -0.657    26.587     6.959
   179   1 h        0.805     0.321     0.661     1.277
   180   1 h        0.803     0.345     0.601     1.218
   181   8 o        1.607    -0.681    27.214     7.041
   182   1 h        0.803     0.336     0.623     1.239
   183   1 h        0.804     0.352     0.583     1.200
   184   8 o        1.607    -0.654    26.524     6.951
   185   1 h        0.803     0.338     0.618     1.235
   186   1 h        0.803     0.329     0.641     1.258
   187   8 o        1.608    -0.660    26.677     6.971
   188   1 h        0.804     0.340     0.613     1.230
   189   1 h        0.805     0.320     0.664     1.280
   190   8 o        1.606    -0.670    26.923     7.003
   191   1 h        0.805     0.324     0.654     1.270
   192   1 h        0.801     0.359     0.568     1.185
   193   8 o        1.607    -0.682    27.233     7.043
   194   1 h        0.804     0.339     0.614     1.231
   195   1 h        0.803     0.343     0.605     1.222
   196   8 o        1.607    -0.684    27.295     7.051
   197   1 h        0.803     0.337     0.621     1.238
   198   1 h        0.804     0.334     0.628     1.244
   199   8 o        1.608    -0.681    27.212     7.040
   200   1 h        0.804     0.350     0.588     1.205
   201   1 h        0.804     0.351     0.586     1.202
   202   8 o        1.608    -0.686    27.352     7.059
   203   1 h        0.804     0.341     0.609     1.226
   204   1 h        0.804     0.324     0.653     1.269
   205   8 o        1.609    -0.657    26.602     6.961
   206   1 h        0.804     0.342     0.608     1.225
   207   1 h        0.805     0.324     0.653     1.269
   208   8 o        1.609    -0.678    27.140     7.031
   209   1 h        0.804     0.335     0.625     1.242
   210   1 h        0.805     0.342     0.608     1.225
   211   8 o        1.607    -0.684    27.281     7.049
   212   1 h        0.803     0.356     0.574     1.190
   213   1 h        0.803     0.349     0.591     1.208
   214   8 o        1.607    -0.681    27.209     7.040
   215   1 h        0.805     0.326     0.649     1.265
   216   1 h        0.802     0.360     0.566     1.182
   217   8 o        1.608    -0.679    27.167     7.035
   218   1 h        0.803     0.333     0.630     1.247
   219   1 h        0.805     0.346     0.597     1.214
   220   8 o        1.607    -0.687    27.373     7.061
   221   1 h        0.803     0.354     0.580     1.196
   222   1 h        0.804     0.331     0.636     1.253
   223   8 o        1.605    -0.668    26.875     6.997
   224   1 h        0.802     0.341     0.609     1.226
   225   1 h        0.803     0.327     0.645     1.262
   226   8 o        1.612    -0.666    26.810     6.988
   227   1 h        0.803     0.348     0.593     1.209
   228   1 h        0.804     0.323     0.656     1.272
   229   8 o        1.605    -0.697    27.630     7.094
   230   1 h        0.802     0.364     0.558     1.173
   231   1 h        0.803     0.326     0.648     1.265
   232   8 o        1.609    -0.671    26.957     7.007
   233   1 h        0.805     0.324     0.654     1.270
   234   1 h        0.804     0.342     0.606     1.223
   235   8 o        1.609    -0.686    27.334     7.056
   236   1 h        0.805     0.334     0.626     1.243
   237   1 h        0.804     0.346     0.597     1.214
   238   8 o        1.608    -0.689    27.412     7.066
   239   1 h        0.804     0.344     0.602     1.219
   240   1 h        0.803     0.349     0.591     1.208
   241   8 o        1.610    -0.656    26.569     6.957
   242   1 h        0.805     0.325     0.650     1.266
   243   1 h        0.805     0.334     0.626     1.243
   244   8 o        1.606    -0.696    27.611     7.092
   245   1 h        0.802     0.333     0.631     1.248
   246   1 h        0.803     0.356     0.575     1.191
   247   8 o        1.608    -0.670    26.919     7.003
   248   1 h        0.804     0.337     0.619     1.235
   249   1 h        0.804     0.327     0.645     1.262
   250   8 o        1.606    -0.681    27.221     7.042
   251   1 h        0.803     0.353     0.583     1.199
   252   1 h        0.804     0.332     0.632     1.249
   253   8 o        1.609    -0.660    26.670     6.970
   254   1 h        0.805     0.330     0.636     1.253
   255   1 h        0.804     0.344     0.602     1.219
   256   8 o        1.608    -0.687    27.373     7.061
   257   1 h        0.804     0.340     0.612     1.228
   258   1 h        0.804     0.334     0.628     1.245
   259   8 o        1.606    -0.666    26.832     6.991
   260   1 h        0.802     0.340     0.613     1.230
   261   1 h        0.803     0.338     0.617     1.234
   262   8 o        1.609    -0.669    26.910     7.001
   263   1 h        0.804     0.331     0.634     1.251
   264   1 h        0.805     0.324     0.654     1.270
   265   8 o        1.608    -0.685    27.313     7.054
   266   1 h        0.804     0.333     0.630     1.247
   267   1 h        0.804     0.342     0.608     1.225
   268   8 o        1.606    -0.690    27.454     7.072
   269   1 h        0.803     0.348     0.594     1.211
   270   1 h        0.803     0.360     0.566     1.182
   271   8 o        1.605    -0.672    26.986     7.011
   272   1 h        0.806     0.312     0.685     1.300
   273   1 h        0.802     0.365     0.555     1.170
   274   8 o        1.608    -0.654    26.519     6.950
   275   1 h        0.804     0.327     0.646     1.263
   276   1 h        0.804     0.342     0.608     1.225
   277   8 o        1.606    -0.690    27.460     7.072
   278   1 h        0.803     0.329     0.641     1.258
   279   1 h        0.803     0.336     0.621     1.238
   280   8 o        1.609    -0.652    26.464     6.943
   281   1 h        0.805     0.332     0.632     1.248
   282   1 h        0.804     0.336     0.622     1.239
   283   8 o        1.609    -0.648    26.354     6.929
   284   1 h        0.805     0.326     0.646     1.263
   285   1 h        0.804     0.328     0.642     1.259
   286   8 o        1.609    -0.655    26.538     6.953
   287   1 h        0.806     0.319     0.667     1.283
   288   1 h        0.803     0.350     0.589     1.205
   289   8 o        1.609    -0.648    26.355     6.929
   290   1 h        0.804     0.330     0.637     1.253
   291   1 h        0.805     0.324     0.652     1.268
   292   8 o        1.609    -0.685    27.303     7.052
   293   1 h        0.804     0.341     0.610     1.227
   294   1 h        0.805     0.330     0.637     1.254
   295   8 o        1.609    -0.680    27.195     7.038
   296   1 h        0.804     0.341     0.610     1.227
   297   1 h        0.805     0.330     0.638     1.255
   298   8 o        1.609    -0.670    26.924     7.003
   299   1 h        0.804     0.355     0.576     1.192
   300   1 h        0.805     0.325     0.651     1.267
   301   8 o        1.608    -0.666    26.826     6.990
   302   1 h        0.804     0.336     0.623     1.240
   303   1 h        0.805     0.334     0.628     1.245
   304   8 o        1.608    -0.682    27.237     7.044
   305   1 h        0.804     0.325     0.649     1.266
   306   1 h        0.804     0.354     0.580     1.197
   307   8 o        1.609    -0.686    27.348     7.058
   308   1 h        0.803     0.338     0.618     1.235
   309   1 h        0.804     0.335     0.626     1.242
   310   8 o        1.607    -0.660    26.669     6.970
   311   1 h        0.804     0.334     0.626     1.243
   312   1 h        0.803     0.339     0.615     1.232
   313   8 o        1.603    -0.701    27.747     7.109
   314   1 h        0.805     0.318     0.668     1.284
   315   1 h        0.804     0.369     0.546     1.160
   316   8 o        1.609    -0.667    26.856     6.994
   317   1 h        0.805     0.331     0.634     1.251
   318   1 h        0.804     0.345     0.601     1.218
   319   8 o        1.609    -0.646    26.305     6.922
   320   1 h        0.803     0.344     0.601     1.218
   321   1 h        0.806     0.315     0.677     1.292
   322   8 o        1.608    -0.686    27.337     7.057
   323   1 h        0.803     0.348     0.593     1.210
   324   1 h        0.805     0.322     0.657     1.273
   325   8 o        1.607    -0.666    26.816     6.989
   326   1 h        0.803     0.333     0.631     1.248
   327   1 h        0.804     0.337     0.621     1.238
   328   8 o        1.608    -0.674    27.035     7.017
   329   1 h        0.803     0.334     0.627     1.244
   330   1 h        0.805     0.337     0.620     1.237
   331   8 o        1.610    -0.675    27.043     7.019
   332   1 h        0.804     0.334     0.628     1.245
   333   1 h        0.804     0.339     0.615     1.232
   334   8 o        1.608    -0.666    26.826     6.990
   335   1 h        0.805     0.333     0.631     1.247
   336   1 h        0.803     0.340     0.612     1.228
   337   8 o        1.603    -0.687    27.374     7.061
   338   1 h        0.802     0.363     0.559     1.175
   339   1 h        0.806     0.313     0.684     1.299
   340   8 o        1.607    -0.666    26.831     6.991
   341   1 h        0.802     0.340     0.613     1.230
   342   1 h        0.805     0.327     0.644     1.261
   343   8 o        1.607    -0.667    26.847     6.993
   344   1 h        0.804     0.339     0.616     1.233
   345   1 h        0.803     0.347     0.596     1.213
   346   8 o        1.608    -0.670    26.915     7.002
   347   1 h        0.803     0.352     0.584     1.200
   348   1 h        0.805     0.323     0.657     1.273
   349   8 o        1.608    -0.676    27.073     7.022
   350   1 h        0.804     0.356     0.574     1.190
   351   1 h        0.804     0.328     0.642     1.259
   352   8 o        1.608    -0.666    26.819     6.989
   353   1 h        0.803     0.335     0.626     1.243
   354   1 h        0.806     0.303     0.711     1.325
   355   8 o        1.608    -0.678    27.141     7.031
   356   1 h        0.804     0.339     0.616     1.233
   357   1 h        0.805     0.335     0.625     1.242
   358   8 o        1.605    -0.712    28.026     7.145
   359   1 h        0.803     0.346     0.598     1.214
   360   1 h        0.803     0.342     0.609     1.225
   361   8 o        1.610    -0.656    26.575     6.958
   362   1 h        0.805     0.331     0.635     1.251
   363   1 h        0.805     0.335     0.625     1.242
   364   8 o        1.607    -0.657    26.596     6.960
   365   1 h        0.802     0.344     0.603     1.220
   366   1 h        0.805     0.316     0.676     1.291
   367   8 o        1.609    -0.674    27.033     7.017
   368   1 h        0.805     0.329     0.640     1.257
   369   1 h        0.804     0.335     0.624     1.241
   370   8 o        1.607    -0.686    27.349     7.058
   371   1 h        0.803     0.348     0.593     1.210
   372   1 h        0.803     0.328     0.644     1.261
   373   8 o        1.609    -0.666    26.820     6.990
   374   1 h        0.804     0.351     0.585     1.202
   375   1 h        0.806     0.299     0.724     1.336
   376   8 o        1.608    -0.680    27.186     7.037
   377   1 h        0.805     0.326     0.647     1.263
   378   1 h        0.804     0.350     0.589     1.205
   379   8 o        1.610    -0.650    26.404     6.935
   380   1 h        0.804     0.346     0.597     1.214
   381   1 h        0.805     0.327     0.646     1.263
   382   8 o        1.606    -0.674    27.031     7.017
   383   1 h        0.806     0.314     0.681     1.296
   384   1 h        0.801     0.358     0.570     1.186
   385   8 o        1.607    -0.657    26.585     6.959
   386   1 h        0.805     0.333     0.630     1.246
   387   1 h        0.803     0.340     0.612     1.229
   388   8 o        1.608    -0.687    27.378     7.062
   389   1 h        0.803     0.363     0.558     1.173
   390   1 h        0.805     0.317     0.672     1.287
   391   8 o        1.607    -0.659    26.633     6.965
   392   1 h        0.802     0.350     0.589     1.205
   393   1 h        0.805     0.318     0.669     1.285
   394   8 o        1.609    -0.673    26.995     7.012
   395   1 h        0.804     0.337     0.620     1.237
   396   1 h        0.804     0.336     0.623     1.240
   397   8 o        1.608    -0.648    26.365     6.930
   398   1 h        0.806     0.312     0.685     1.300
   399   1 h        0.802     0.348     0.593     1.210
   400   8 o        1.610    -0.686    27.328     7.055
   401   1 h        0.805     0.334     0.627     1.244
   402   1 h        0.804     0.354     0.578     1.195
   403   8 o        1.607    -0.660    26.658     6.968
   404   1 h        0.802     0.349     0.591     1.207
   405   1 h        0.805     0.311     0.690     1.305
   406   8 o        1.608    -0.650    26.408     6.936
   407   1 h        0.803     0.337     0.620     1.237
   408   1 h        0.804     0.337     0.620     1.237
   409   8 o        1.608    -0.680    27.181     7.036
   410   1 h        0.804     0.353     0.581     1.197
   411   1 h        0.803     0.334     0.627     1.244
   412   8 o        1.606    -0.685    27.315     7.054
   413   1 h        0.805     0.330     0.638     1.255
   414   1 h        0.802     0.358     0.571     1.187
   415   8 o        1.609    -0.667    26.841     6.992
   416   1 h        0.803     0.362     0.560     1.176
   417   1 h        0.805     0.314     0.681     1.296
   418   8 o        1.608    -0.656    26.561     6.956
   419   1 h        0.803     0.342     0.607     1.224
   420   1 h        0.806     0.316     0.674     1.290
   421   8 o        1.606    -0.690    27.445     7.070
   422   1 h        0.802     0.344     0.602     1.219
   423   1 h        0.805     0.320     0.665     1.281
   424   8 o        1.609    -0.645    26.292     6.920
   425   1 h        0.805     0.321     0.660     1.277
   426   1 h        0.805     0.316     0.674     1.289
   427   8 o        1.605    -0.697    27.627     7.094
   428   1 h        0.804     0.336     0.621     1.238
   429   1 h        0.802     0.363     0.560     1.175
   430   8 o        1.607    -0.689    27.416     7.067
   431   1 h        0.804     0.325     0.650     1.267
   432   1 h        0.802     0.355     0.577     1.193
   433   8 o        1.609    -0.658    26.620     6.963
   434   1 h        0.806     0.320     0.663     1.279
   435   1 h        0.803     0.347     0.595     1.212
   436   8 o        1.608    -0.678    27.142     7.031
   437   1 h        0.804     0.329     0.641     1.258
   438   1 h        0.804     0.346     0.598     1.215
   439   8 o        1.608    -0.669    26.896     6.999
   440   1 h        0.805     0.328     0.642     1.259
   441   1 h        0.803     0.342     0.608     1.225
   442   8 o        1.609    -0.682    27.236     7.044
   443   1 h        0.805     0.322     0.659     1.275
   444   1 h        0.804     0.333     0.629     1.246
   445   8 o        1.609    -0.676    27.068     7.022
   446   1 h        0.805     0.323     0.655     1.271
   447   1 h        0.803     0.345     0.600     1.217
   448   8 o        1.605    -0.695    27.584     7.088
   449   1 h        0.801     0.362     0.561     1.177
   450   1 h        0.805     0.325     0.652     1.268
   451   8 o        1.608    -0.693    27.518     7.080
   452   1 h        0.804     0.342     0.607     1.223
   453   1 h        0.804     0.358     0.569     1.185
   454   8 o        1.606    -0.697    27.623     7.093
   455   1 h        0.803     0.357     0.573     1.189
   456   1 h        0.803     0.326     0.647     1.263
   457   8 o        1.609    -0.665    26.787     6.985
   458   1 h        0.804     0.346     0.599     1.215
   459   1 h        0.805     0.325     0.650     1.266
   460   8 o        1.609    -0.661    26.694     6.973
   461   1 h        0.805     0.333     0.629     1.246
   462   1 h        0.805     0.337     0.620     1.237
   463   8 o        1.609    -0.653    26.497     6.947
   464   1 h        0.805     0.329     0.641     1.258
   465   1 h        0.804     0.335     0.625     1.242
   466   8 o        1.606    -0.692    27.508     7.079
   467   1 h        0.802     0.371     0.541     1.156
   468   1 h        0.806     0.310     0.692     1.307
   469   8 o        1.608    -0.686    27.340     7.057
   470   1 h        0.804     0.341     0.609     1.226
   471   1 h        0.804     0.337     0.621     1.237
   472   8 o        1.608    -0.673    26.995     7.012
   473   1 h        0.804     0.334     0.628     1.245
   474   1 h        0.804     0.344     0.601     1.218
   475   8 o        1.609    -0.647    26.344     6.927
   476   1 h        0.805     0.319     0.666     1.282
   477   1 h        0.803     0.335     0.626     1.243
   478   8 o        1.610    -0.661    26.703     6.974
   479   1 h        0.804     0.341     0.611     1.228
   480   1 h        0.805     0.335     0.625     1.242
   481   8 o        1.607    -0.678    27.145     7.032
   482   1 h        0.804     0.323     0.656     1.272
   483   1 h        0.803     0.349     0.591     1.208
   484   8 o        1.607    -0.680    27.176     7.036
   485   1 h        0.804     0.333     0.630     1.246
   486   1 h        0.803     0.356     0.575     1.192
   487   8 o        1.607    -0.671    26.942     7.005
   488   1 h        0.803     0.330     0.636     1.253
   489   1 h        0.804     0.346     0.598     1.215
   490   8 o        1.608    -0.684    27.298     7.052
   491   1 h        0.804     0.334     0.626     1.243
   492   1 h        0.804     0.347     0.596     1.213
   493   8 o        1.607    -0.664    26.781     6.984
   494   1 h        0.805     0.320     0.664     1.280
   495   1 h        0.802     0.329     0.640     1.257
   496   8 o        1.606    -0.669    26.910     7.001
   497   1 h        0.806     0.313     0.683     1.298
   498   1 h        0.801     0.348     0.592     1.209
   499   8 o        1.609    -0.673    26.991     7.012
   500   1 h        0.804     0.343     0.605     1.222
   501   1 h        0.804     0.318     0.670     1.285
   502   8 o        1.608    -0.685    27.312     7.053
   503   1 h        0.804     0.325     0.650     1.267
   504   1 h        0.804     0.340     0.612     1.229
   505   8 o        1.606    -0.690    27.460     7.072
   506   1 h        0.802     0.351     0.586     1.203
   507   1 h        0.804     0.324     0.652     1.268
   508   8 o        1.608    -0.670    26.912     7.002
   509   1 h        0.804     0.338     0.616     1.233
   510   1 h        0.804     0.327     0.644     1.261
   511   8 o        1.608    -0.666    26.809     6.988
   512   1 h        0.805     0.329     0.641     1.258
   513   1 h        0.803     0.339     0.614     1.231
   514   8 o        1.609    -0.680    27.189     7.037
   515   1 h        0.804     0.342     0.607     1.224
   516   1 h        0.804     0.341     0.611     1.227
   517   8 o        1.608    -0.679    27.156     7.033
   518   1 h        0.804     0.330     0.638     1.255
   519   1 h        0.803     0.353     0.581     1.197
   520   8 o        1.605    -0.712    28.035     7.146
   521   1 h        0.803     0.353     0.581     1.197
   522   1 h        0.803     0.331     0.636     1.253
   523   8 o        1.607    -0.679    27.164     7.034
   524   1 h        0.803     0.357     0.573     1.189
   525   1 h        0.804     0.330     0.637     1.253
   526   8 o        1.607    -0.678    27.137     7.031
   527   1 h        0.805     0.332     0.632     1.248
   528   1 h        0.803     0.336     0.624     1.241
   529   8 o        1.611    -0.653    26.502     6.948
   530   1 h        0.805     0.335     0.625     1.241
   531   1 h        0.805     0.326     0.647     1.263

 Mol. C6AA /au·bohr⁶  :    1428635.975918
 Mol. C8AA /au·bohr⁸  :   25907522.363500
 Mol. α(0) /au        :       1680.145472


Wiberg/Mayer (AO) data.
largest (>0.10) Wiberg bond orders for each atom

 ---------------------------------------------------------------------------
     #   Z sym  total        # sym  WBO       # sym  WBO       # sym  WBO
 ---------------------------------------------------------------------------
     1   8 o    1.837 --     2 h    0.826     3 h    0.808
     2   1 h    0.887 --     1 o    0.826
     3   1 h    0.879 --     1 o    0.808
     4   8 o    1.852 --     5 h    0.830     6 h    0.808
     5   1 h    0.892 --     4 o    0.830
     6   1 h    0.877 --     4 o    0.808
     7   8 o    1.857 --     8 h    0.833     9 h    0.822
     8   1 h    0.883 --     7 o    0.833
     9   1 h    0.883 --     7 o    0.822
    10   8 o    1.840 --    11 h    0.846    12 h    0.810
    11   1 h    0.885 --    10 o    0.846
    12   1 h    0.872 --    10 o    0.810
    13   8 o    1.859 --    15 h    0.832    14 h    0.808
    14   1 h    0.873 --    13 o    0.808
    15   1 h    0.879 --    13 o    0.832
    16   8 o    1.815 --    18 h    0.840    17 h    0.833
    17   1 h    0.881 --    16 o    0.833
    18   1 h    0.899 --    16 o    0.840
    19   8 o    1.869 --    21 h    0.853    20 h    0.820
    20   1 h    0.885 --    19 o    0.820
    21   1 h    0.886 --    19 o    0.853
    22   8 o    1.826 --    24 h    0.833    23 h    0.767
    23   1 h    0.871 --    22 o    0.767
    24   1 h    0.897 --    22 o    0.833
    25   8 o    1.836 --    26 h    0.858    27 h    0.817
    26   1 h    0.902 --    25 o    0.858
    27   1 h    0.881 --    25 o    0.817
    28   8 o    1.890 --    30 h    0.829    29 h    0.806
    29   1 h    0.884 --    28 o    0.806
    30   1 h    0.883 --    28 o    0.829
    31   8 o    1.858 --    32 h    0.845    33 h    0.804
    32   1 h    0.886 --    31 o    0.845
    33   1 h    0.876 --    31 o    0.804
    34   8 o    1.848 --    35 h    0.845    36 h    0.818
    35   1 h    0.894 --    34 o    0.845
    36   1 h    0.888 --    34 o    0.818
    37   8 o    1.856 --    38 h    0.851    39 h    0.813
    38   1 h    0.891 --    37 o    0.851
    39   1 h    0.882 --    37 o    0.813
    40   8 o    1.840 --    42 h    0.855    41 h    0.781
    41   1 h    0.876 --    40 o    0.781
    42   1 h    0.896 --    40 o    0.855
    43   8 o    1.868 --    45 h    0.839    44 h    0.814
    44   1 h    0.872 --    43 o    0.814
    45   1 h    0.894 --    43 o    0.839
    46   8 o    1.873 --    47 h    0.865    48 h    0.814
    47   1 h    0.892 --    46 o    0.865
    48   1 h    0.881 --    46 o    0.814
    49   8 o    1.865 --    50 h    0.823    51 h    0.814
    50   1 h    0.880 --    49 o    0.823
    51   1 h    0.875 --    49 o    0.814
    52   8 o    1.833 --    53 h    0.847    54 h    0.834
    53   1 h    0.896 --    52 o    0.847
    54   1 h    0.893 --    52 o    0.834
    55   8 o    1.836 --    57 h    0.850    56 h    0.799
    56   1 h    0.882 --    55 o    0.799
    57   1 h    0.888 --    55 o    0.850
    58   8 o    1.894 --    60 h    0.827    59 h    0.803
    59   1 h    0.867 --    58 o    0.803
    60   1 h    0.881 --    58 o    0.827
    61   8 o    1.844 --    62 h    0.898    63 h    0.800
    62   1 h    0.904 --    61 o    0.898
    63   1 h    0.874 --    61 o    0.800
    64   8 o    1.834 --    66 h    0.842    65 h    0.820
    65   1 h    0.885 --    64 o    0.820
    66   1 h    0.893 --    64 o    0.842
    67   8 o    1.841 --    68 h    0.839    69 h    0.797
    68   1 h    0.893 --    67 o    0.839
    69   1 h    0.875 --    67 o    0.797
    70   8 o    1.868 --    71 h    0.836    72 h    0.800
    71   1 h    0.894 --    70 o    0.836
    72   1 h    0.877 --    70 o    0.800
    73   8 o    1.861 --    74 h    0.870    75 h    0.803
    74   1 h    0.889 --    73 o    0.870
    75   1 h    0.875 --    73 o    0.803
    76   8 o    1.816 --    78 h    0.840    77 h    0.830
    77   1 h    0.888 --    76 o    0.830
    78   1 h    0.887 --    76 o    0.840
    79   8 o    1.886 --    80 h    0.836    81 h    0.780   315 h    0.111
    80   1 h    0.880 --    79 o    0.836
    81   1 h    0.868 --    79 o    0.780
    82   8 o    1.860 --    83 h    0.837    84 h    0.805
    83   1 h    0.892 --    82 o    0.837
    84   1 h    0.868 --    82 o    0.805
    85   8 o    1.829 --    86 h    0.842    87 h    0.813
    86   1 h    0.892 --    85 o    0.842
    87   1 h    0.875 --    85 o    0.813
    88   8 o    1.813 --    89 h    0.851    90 h    0.846
    89   1 h    0.898 --    88 o    0.851
    90   1 h    0.895 --    88 o    0.846
    91   8 o    1.838 --    93 h    0.865    92 h    0.801
    92   1 h    0.877 --    91 o    0.801
    93   1 h    0.895 --    91 o    0.865
    94   8 o    1.881 --    95 h    0.865    96 h    0.792
    95   1 h    0.899 --    94 o    0.865
    96   1 h    0.879 --    94 o    0.792
    97   8 o    1.849 --    99 h    0.848    98 h    0.818
    98   1 h    0.881 --    97 o    0.818
    99   1 h    0.887 --    97 o    0.848
   100   8 o    1.890 --   101 h    0.802   102 h    0.800
   101   1 h    0.887 --   100 o    0.802
   102   1 h    0.869 --   100 o    0.800
   103   8 o    1.861 --   105 h    0.842   104 h    0.802
   104   1 h    0.875 --   103 o    0.802
   105   1 h    0.885 --   103 o    0.842
   106   8 o    1.832 --   108 h    0.861   107 h    0.821
   107   1 h    0.888 --   106 o    0.821
   108   1 h    0.892 --   106 o    0.861
   109   8 o    1.874 --   111 h    0.804   110 h    0.787
   110   1 h    0.875 --   109 o    0.787
   111   1 h    0.880 --   109 o    0.804
   112   8 o    1.890 --   114 h    0.814   113 h    0.806
   113   1 h    0.878 --   112 o    0.806
   114   1 h    0.884 --   112 o    0.814
   115   8 o    1.881 --   116 h    0.810   117 h    0.792
   116   1 h    0.877 --   115 o    0.810
   117   1 h    0.875 --   115 o    0.792
   118   8 o    1.862 --   119 h    0.809   120 h    0.806
   119   1 h    0.884 --   118 o    0.809
   120   1 h    0.879 --   118 o    0.806
   121   8 o    1.840 --   122 h    0.840   123 h    0.815
   122   1 h    0.891 --   121 o    0.840
   123   1 h    0.874 --   121 o    0.815
   124   8 o    1.853 --   126 h    0.862   125 h    0.818
   125   1 h    0.874 --   124 o    0.818
   126   1 h    0.895 --   124 o    0.862
   127   8 o    1.862 --   129 h    0.836   128 h    0.803
   128   1 h    0.869 --   127 o    0.803
   129   1 h    0.883 --   127 o    0.836
   130   8 o    1.852 --   131 h    0.836   132 h    0.806
   131   1 h    0.893 --   130 o    0.836
   132   1 h    0.880 --   130 o    0.806
   133   8 o    1.871 --   134 h    0.833   135 h    0.782
   134   1 h    0.891 --   133 o    0.833
   135   1 h    0.878 --   133 o    0.782
   136   8 o    1.846 --   137 h    0.867   138 h    0.810
   137   1 h    0.894 --   136 o    0.867
   138   1 h    0.887 --   136 o    0.810
   139   8 o    1.837 --   141 h    0.869   140 h    0.797
   140   1 h    0.887 --   139 o    0.797
   141   1 h    0.901 --   139 o    0.869
   142   8 o    1.829 --   144 h    0.852   143 h    0.839
   143   1 h    0.891 --   142 o    0.839
   144   1 h    0.895 --   142 o    0.852
   145   8 o    1.837 --   147 h    0.839   146 h    0.807
   146   1 h    0.879 --   145 o    0.807
   147   1 h    0.893 --   145 o    0.839
   148   8 o    1.832 --   149 h    0.877   150 h    0.865
   149   1 h    0.890 --   148 o    0.877
   150   1 h    0.887 --   148 o    0.865
   151   8 o    1.868 --   153 h    0.828   152 h    0.812
   152   1 h    0.882 --   151 o    0.812
   153   1 h    0.894 --   151 o    0.828
   154   8 o    1.831 --   155 h    0.839   156 h    0.828
   155   1 h    0.890 --   154 o    0.839
   156   1 h    0.892 --   154 o    0.828
   157   8 o    1.895 --   159 h    0.811   158 h    0.779
   158   1 h    0.871 --   157 o    0.779
   159   1 h    0.875 --   157 o    0.811
   160   8 o    1.819 --   162 h    0.855   161 h    0.830
   161   1 h    0.888 --   160 o    0.830
   162   1 h    0.888 --   160 o    0.855
   163   8 o    1.839 --   165 h    0.864   164 h    0.800
   164   1 h    0.882 --   163 o    0.800
   165   1 h    0.892 --   163 o    0.864
   166   8 o    1.891 --   168 h    0.829   167 h    0.806
   167   1 h    0.873 --   166 o    0.806
   168   1 h    0.888 --   166 o    0.829
   169   8 o    1.842 --   171 h    0.849   170 h    0.845
   170   1 h    0.884 --   169 o    0.845
   171   1 h    0.887 --   169 o    0.849
   172   8 o    1.827 --   173 h    0.853   174 h    0.829
   173   1 h    0.893 --   172 o    0.853
   174   1 h    0.879 --   172 o    0.829
   175   8 o    1.844 --   177 h    0.832   176 h    0.763
   176   1 h    0.869 --   175 o    0.763
   177   1 h    0.892 --   175 o    0.832
   178   8 o    1.842 --   179 h    0.877   180 h    0.826
   179   1 h    0.897 --   178 o    0.877
   180   1 h    0.881 --   178 o    0.826
   181   8 o    1.866 --   183 h    0.820   182 h    0.811
   182   1 h    0.887 --   181 o    0.811
   183   1 h    0.876 --   181 o    0.820
   184   8 o    1.902 --   185 h    0.827   186 h    0.826
   185   1 h    0.886 --   184 o    0.827
   186   1 h    0.892 --   184 o    0.826
   187   8 o    1.824 --   189 h    0.876   188 h    0.833
   188   1 h    0.884 --   187 o    0.833
   189   1 h    0.898 --   187 o    0.876
   190   8 o    1.859 --   191 h    0.868   192 h    0.786
   191   1 h    0.895 --   190 o    0.868
   192   1 h    0.871 --   190 o    0.786
   193   8 o    1.869 --   194 h    0.821   195 h    0.815
   194   1 h    0.885 --   193 o    0.821
   195   1 h    0.882 --   193 o    0.815
   196   8 o    1.820 --   198 h    0.842   197 h    0.819
   197   1 h    0.887 --   196 o    0.819
   198   1 h    0.888 --   196 o    0.842
   199   8 o    1.867 --   201 h    0.823   200 h    0.819
   200   1 h    0.877 --   199 o    0.819
   201   1 h    0.877 --   199 o    0.823
   202   8 o    1.795 --   204 h    0.858   203 h    0.826
   203   1 h    0.884 --   202 o    0.826
   204   1 h    0.895 --   202 o    0.858
   205   8 o    1.825 --   207 h    0.867   206 h    0.846
   206   1 h    0.883 --   205 o    0.846
   207   1 h    0.895 --   205 o    0.867
   208   8 o    1.845 --   210 h    0.833   209 h    0.818
   209   1 h    0.888 --   208 o    0.818
   210   1 h    0.883 --   208 o    0.833
   211   8 o    1.882 --   213 h    0.818   212 h    0.811
   212   1 h    0.873 --   211 o    0.811
   213   1 h    0.878 --   211 o    0.818
   214   8 o    1.847 --   215 h    0.866   216 h    0.789
   215   1 h    0.894 --   214 o    0.866
   216   1 h    0.870 --   214 o    0.789
   217   8 o    1.839 --   219 h    0.840   218 h    0.817
   218   1 h    0.889 --   217 o    0.817
   219   1 h    0.880 --   217 o    0.840
   220   8 o    1.849 --   222 h    0.843   221 h    0.819
   221   1 h    0.875 --   220 o    0.819
   222   1 h    0.891 --   220 o    0.843
   223   8 o    1.898 --   225 h    0.827   224 h    0.803
   224   1 h    0.883 --   223 o    0.803
   225   1 h    0.893 --   223 o    0.827
   226   8 o    1.890 --   228 h    0.838   227 h    0.805   338 h    0.118
   227   1 h    0.879 --   226 o    0.805
   228   1 h    0.896 --   226 o    0.838
   229   8 o    1.851 --   231 h    0.829   230 h    0.782
   230   1 h    0.868 --   229 o    0.782
   231   1 h    0.894 --   229 o    0.829
   232   8 o    1.823 --   233 h    0.877   234 h    0.826
   233   1 h    0.895 --   232 o    0.877
   234   1 h    0.883 --   232 o    0.826
   235   8 o    1.829 --   236 h    0.847   237 h    0.828
   236   1 h    0.888 --   235 o    0.847
   237   1 h    0.880 --   235 o    0.828
   238   8 o    1.849 --   239 h    0.836   240 h    0.799
   239   1 h    0.882 --   238 o    0.836
   240   1 h    0.878 --   238 o    0.799
   241   8 o    1.809 --   242 h    0.874   243 h    0.866
   242   1 h    0.894 --   241 o    0.874
   243   1 h    0.888 --   241 o    0.866
   244   8 o    1.865 --   245 h    0.805   246 h    0.801
   245   1 h    0.889 --   244 o    0.805
   246   1 h    0.873 --   244 o    0.801
   247   8 o    1.847 --   249 h    0.843   248 h    0.837
   248   1 h    0.886 --   247 o    0.837
   249   1 h    0.893 --   247 o    0.843
   250   8 o    1.868 --   252 h    0.830   251 h    0.797
   251   1 h    0.876 --   250 o    0.797
   252   1 h    0.890 --   250 o    0.830
   253   8 o    1.843 --   254 h    0.875   255 h    0.843
   254   1 h    0.891 --   253 o    0.875
   255   1 h    0.882 --   253 o    0.843
   256   8 o    1.825 --   258 h    0.842   257 h    0.821
   257   1 h    0.884 --   256 o    0.821
   258   1 h    0.889 --   256 o    0.842
   259   8 o    1.902 --   261 h    0.827   260 h    0.809
   260   1 h    0.884 --   259 o    0.809
   261   1 h    0.886 --   259 o    0.827
   262   8 o    1.810 --   264 h    0.863   263 h    0.832
   263   1 h    0.890 --   262 o    0.832
   264   1 h    0.895 --   262 o    0.863
   265   8 o    1.820 --   266 h    0.847   267 h    0.829
   266   1 h    0.889 --   265 o    0.847
   267   1 h    0.883 --   265 o    0.829
   268   8 o    1.869 --   269 h    0.821   270 h    0.796
   269   1 h    0.879 --   268 o    0.821
   270   1 h    0.870 --   268 o    0.796
   271   8 o    1.862 --   272 h    0.897   273 h    0.761
   272   1 h    0.902 --   271 o    0.897
   273   1 h    0.867 --   271 o    0.761
   274   8 o    1.883 --   276 h    0.842   275 h    0.835
   275   1 h    0.893 --   274 o    0.835
   276   1 h    0.883 --   274 o    0.842
   277   8 o    1.827 --   279 h    0.828   278 h    0.825
   278   1 h    0.892 --   277 o    0.825
   279   1 h    0.887 --   277 o    0.828
   280   8 o    1.849 --   281 h    0.868   282 h    0.851
   281   1 h    0.890 --   280 o    0.868
   282   1 h    0.887 --   280 o    0.851
   283   8 o    1.852 --   284 h    0.871   285 h    0.837
   284   1 h    0.893 --   283 o    0.871
   285   1 h    0.892 --   283 o    0.837
   286   8 o    1.838 --   287 h    0.892   288 h    0.829
   287   1 h    0.898 --   286 o    0.892
   288   1 h    0.878 --   286 o    0.829
   289   8 o    1.853 --   291 h    0.868   290 h    0.840
   290   1 h    0.891 --   289 o    0.840
   291   1 h    0.895 --   289 o    0.868
   292   8 o    1.820 --   294 h    0.861   293 h    0.828
   293   1 h    0.884 --   292 o    0.828
   294   1 h    0.891 --   292 o    0.861
   295   8 o    1.813 --   297 h    0.861   296 h    0.839
   296   1 h    0.884 --   295 o    0.839
   297   1 h    0.891 --   295 o    0.861
   298   8 o    1.840 --   300 h    0.878   299 h    0.815
   299   1 h    0.874 --   298 o    0.815
   300   1 h    0.894 --   298 o    0.878
   301   8 o    1.837 --   303 h    0.862   302 h    0.835
   302   1 h    0.887 --   301 o    0.835
   303   1 h    0.889 --   301 o    0.862
   304   8 o    1.827 --   305 h    0.860   306 h    0.826
   305   1 h    0.894 --   304 o    0.860
   306   1 h    0.875 --   304 o    0.826
   307   8 o    1.841 --   309 h    0.836   308 h    0.827
   308   1 h    0.886 --   307 o    0.827
   309   1 h    0.888 --   307 o    0.836
   310   8 o    1.893 --   311 h    0.834   312 h    0.819
   311   1 h    0.888 --   310 o    0.834
   312   1 h    0.885 --   310 o    0.819
   313   8 o    1.839 --   314 h    0.873   315 h    0.744
   314   1 h    0.898 --   313 o    0.873
   315   1 h    0.864 --   313 o    0.744    79 o    0.111
   316   8 o    1.833 --   317 h    0.867   318 h    0.828
   317   1 h    0.890 --   316 o    0.867
   318   1 h    0.881 --   316 o    0.828
   319   8 o    1.849 --   321 h    0.892   320 h    0.830
   320   1 h    0.881 --   319 o    0.830
   321   1 h    0.900 --   319 o    0.892
   322   8 o    1.802 --   324 h    0.873   323 h    0.814
   323   1 h    0.879 --   322 o    0.814
   324   1 h    0.896 --   322 o    0.873
   325   8 o    1.863 --   327 h    0.845   326 h    0.818
   326   1 h    0.889 --   325 o    0.818
   327   1 h    0.887 --   325 o    0.845
   328   8 o    1.828 --   330 h    0.869   329 h    0.827
   329   1 h    0.888 --   328 o    0.827
   330   1 h    0.887 --   328 o    0.869
   331   8 o    1.841 --   333 h    0.838   332 h    0.836
   332   1 h    0.889 --   331 o    0.836
   333   1 h    0.885 --   331 o    0.838
   334   8 o    1.841 --   335 h    0.870   336 h    0.832
   335   1 h    0.889 --   334 o    0.870
   336   1 h    0.884 --   334 o    0.832
   337   8 o    1.840 --   339 h    0.891   338 h    0.747
   338   1 h    0.868 --   337 o    0.747   226 o    0.118
   339   1 h    0.902 --   337 o    0.891
   340   8 o    1.863 --   342 h    0.862   341 h    0.801
   341   1 h    0.884 --   340 o    0.801
   342   1 h    0.893 --   340 o    0.862
   343   8 o    1.877 --   344 h    0.847   345 h    0.809
   344   1 h    0.885 --   343 o    0.847
   345   1 h    0.880 --   343 o    0.809
   346   8 o    1.833 --   348 h    0.873   347 h    0.825
   347   1 h    0.876 --   346 o    0.825
   348   1 h    0.896 --   346 o    0.873
   349   8 o    1.863 --   351 h    0.842   350 h    0.800
   350   1 h    0.873 --   349 o    0.800
   351   1 h    0.892 --   349 o    0.842
   352   8 o    1.797 --   354 h    0.904   353 h    0.821
   353   1 h    0.888 --   352 o    0.821
   354   1 h    0.908 --   352 o    0.904
   355   8 o    1.818 --   357 h    0.856   356 h    0.830
   356   1 h    0.885 --   355 o    0.830
   357   1 h    0.888 --   355 o    0.856
   358   8 o    1.838 --   359 h    0.814   360 h    0.808
   359   1 h    0.880 --   358 o    0.814
   360   1 h    0.883 --   358 o    0.808
   361   8 o    1.823 --   362 h    0.871   363 h    0.860
   362   1 h    0.890 --   361 o    0.871
   363   1 h    0.888 --   361 o    0.860
   364   8 o    1.854 --   366 h    0.890   365 h    0.803
   365   1 h    0.882 --   364 o    0.803
   366   1 h    0.900 --   364 o    0.890
   367   8 o    1.799 --   368 h    0.871   369 h    0.851
   368   1 h    0.892 --   367 o    0.871
   369   1 h    0.888 --   367 o    0.851
   370   8 o    1.852 --   372 h    0.836   371 h    0.810
   371   1 h    0.879 --   370 o    0.810
   372   1 h    0.893 --   370 o    0.836
   373   8 o    1.798 --   375 h    0.907   374 h    0.824
   374   1 h    0.877 --   373 o    0.824
   375   1 h    0.911 --   373 o    0.907
   376   8 o    1.837 --   377 h    0.846   378 h    0.818
   377   1 h    0.893 --   376 o    0.846
   378   1 h    0.878 --   376 o    0.818
   379   8 o    1.839 --   381 h    0.886   380 h    0.843
   380   1 h    0.880 --   379 o    0.843
   381   1 h    0.893 --   379 o    0.886
   382   8 o    1.838 --   383 h    0.895   384 h    0.781
   383   1 h    0.902 --   382 o    0.895
   384   1 h    0.872 --   382 o    0.781
   385   8 o    1.874 --   386 h    0.864   387 h    0.812
   386   1 h    0.889 --   385 o    0.864
   387   1 h    0.884 --   385 o    0.812
   388   8 o    1.811 --   390 h    0.889   389 h    0.801
   389   1 h    0.868 --   388 o    0.801
   390   1 h    0.899 --   388 o    0.889
   391   8 o    1.845 --   393 h    0.885   392 h    0.808
   392   1 h    0.878 --   391 o    0.808
   393   1 h    0.899 --   391 o    0.885
   394   8 o    1.853 --   395 h    0.835   396 h    0.829
   395   1 h    0.887 --   394 o    0.835
   396   1 h    0.887 --   394 o    0.829
   397   8 o    1.854 --   398 h    0.897   399 h    0.808
   398   1 h    0.902 --   397 o    0.897
   399   1 h    0.879 --   397 o    0.808
   400   8 o    1.843 --   401 h    0.846   402 h    0.796
   401   1 h    0.889 --   400 o    0.846
   402   1 h    0.874 --   400 o    0.796
   403   8 o    1.844 --   405 h    0.888   404 h    0.802
   404   1 h    0.878 --   403 o    0.802
   405   1 h    0.903 --   403 o    0.888
   406   8 o    1.904 --   408 h    0.843   407 h    0.820
   407   1 h    0.886 --   406 o    0.820
   408   1 h    0.887 --   406 o    0.843
   409   8 o    1.864 --   411 h    0.821   410 h    0.818
   410   1 h    0.875 --   409 o    0.818
   411   1 h    0.888 --   409 o    0.821
   412   8 o    1.853 --   413 h    0.872   414 h    0.778
   413   1 h    0.891 --   412 o    0.872
   414   1 h    0.872 --   412 o    0.778
   415   8 o    1.836 --   417 h    0.889   416 h    0.813
   416   1 h    0.869 --   415 o    0.813
   417   1 h    0.901 --   415 o    0.889
   418   8 o    1.841 --   420 h    0.890   419 h    0.815
   419   1 h    0.883 --   418 o    0.815
   420   1 h    0.900 --   418 o    0.890
   421   8 o    1.810 --   423 h    0.855   422 h    0.804
   422   1 h    0.881 --   421 o    0.804
   423   1 h    0.898 --   421 o    0.855
   424   8 o    1.831 --   426 h    0.867   425 h    0.853
   425   1 h    0.897 --   424 o    0.853
   426   1 h    0.900 --   424 o    0.867
   427   8 o    1.858 --   428 h    0.827   429 h    0.792
   428   1 h    0.887 --   427 o    0.827
   429   1 h    0.868 --   427 o    0.792
   430   8 o    1.838 --   431 h    0.861   432 h    0.795
   431   1 h    0.894 --   430 o    0.861
   432   1 h    0.874 --   430 o    0.795
   433   8 o    1.840 --   434 h    0.892   435 h    0.818
   434   1 h    0.897 --   433 o    0.892
   435   1 h    0.879 --   433 o    0.818
   436   8 o    1.819 --   437 h    0.855   438 h    0.835
   437   1 h    0.892 --   436 o    0.855
   438   1 h    0.880 --   436 o    0.835
   439   8 o    1.841 --   440 h    0.869   441 h    0.820
   440   1 h    0.892 --   439 o    0.869
   441   1 h    0.883 --   439 o    0.820
   442   8 o    1.799 --   443 h    0.870   444 h    0.826
   443   1 h    0.896 --   442 o    0.870
   444   1 h    0.889 --   442 o    0.826
   445   8 o    1.819 --   446 h    0.886   447 h    0.822
   446   1 h    0.895 --   445 o    0.886
   447   1 h    0.881 --   445 o    0.822
   448   8 o    1.841 --   450 h    0.857   449 h    0.765
   449   1 h    0.869 --   448 o    0.765
   450   1 h    0.895 --   448 o    0.857
   451   8 o    1.842 --   452 h    0.822   453 h    0.813
   452   1 h    0.883 --   451 o    0.822
   453   1 h    0.871 --   451 o    0.813
   454   8 o    1.833 --   456 h    0.838   455 h    0.801
   455   1 h    0.873 --   454 o    0.801
   456   1 h    0.893 --   454 o    0.838
   457   8 o    1.828 --   459 h    0.882   458 h    0.840
   458   1 h    0.881 --   457 o    0.840
   459   1 h    0.894 --   457 o    0.882
   460   8 o    1.815 --   461 h    0.866   462 h    0.856
   461   1 h    0.889 --   460 o    0.866
   462   1 h    0.886 --   460 o    0.856
   463   8 o    1.842 --   464 h    0.860   465 h    0.847
   464   1 h    0.892 --   463 o    0.860
   465   1 h    0.888 --   463 o    0.847
   466   8 o    1.817 --   468 h    0.896   467 h    0.765
   467   1 h    0.862 --   466 o    0.765
   468   1 h    0.904 --   466 o    0.896
   469   8 o    1.830 --   470 h    0.838   471 h    0.838
   470   1 h    0.884 --   469 o    0.838
   471   1 h    0.887 --   469 o    0.838
   472   8 o    1.842 --   473 h    0.850   474 h    0.827
   473   1 h    0.889 --   472 o    0.850
   474   1 h    0.881 --   472 o    0.827
   475   8 o    1.853 --   476 h    0.885   477 h    0.826
   476   1 h    0.898 --   475 o    0.885
   477   1 h    0.888 --   475 o    0.826
   478   8 o    1.840 --   480 h    0.864   479 h    0.848
   479   1 h    0.884 --   478 o    0.848
   480   1 h    0.888 --   478 o    0.864
   481   8 o    1.842 --   482 h    0.848   483 h    0.818
   482   1 h    0.896 --   481 o    0.848
   483   1 h    0.878 --   481 o    0.818
   484   8 o    1.863 --   485 h    0.836   486 h    0.796
   485   1 h    0.889 --   484 o    0.836
   486   1 h    0.873 --   484 o    0.796
   487   8 o    1.865 --   488 h    0.831   489 h    0.827
   488   1 h    0.891 --   487 o    0.831
   489   1 h    0.880 --   487 o    0.827
   490   8 o    1.867 --   491 h    0.817   492 h    0.804
   491   1 h    0.888 --   490 o    0.817
   492   1 h    0.880 --   490 o    0.804
   493   8 o    1.847 --   494 h    0.861   495 h    0.824
   494   1 h    0.897 --   493 o    0.861
   495   1 h    0.892 --   493 o    0.824
   496   8 o    1.837 --   497 h    0.894   498 h    0.790
   497   1 h    0.902 --   496 o    0.894
   498   1 h    0.879 --   496 o    0.790
   499   8 o    1.835 --   501 h    0.855   500 h    0.817
   500   1 h    0.882 --   499 o    0.817
   501   1 h    0.899 --   499 o    0.855
   502   8 o    1.810 --   503 h    0.850   504 h    0.824
   503   1 h    0.894 --   502 o    0.850
   504   1 h    0.884 --   502 o    0.824
   505   8 o    1.837 --   507 h    0.850   506 h    0.790
   506   1 h    0.877 --   505 o    0.790
   507   1 h    0.895 --   505 o    0.850
   508   8 o    1.829 --   510 h    0.853   509 h    0.842
   509   1 h    0.886 --   508 o    0.842
   510   1 h    0.893 --   508 o    0.853
   511   8 o    1.843 --   512 h    0.868   513 h    0.822
   512   1 h    0.892 --   511 o    0.868
   513   1 h    0.885 --   511 o    0.822
   514   8 o    1.844 --   515 h    0.840   516 h    0.836
   515   1 h    0.883 --   514 o    0.840
   516   1 h    0.884 --   514 o    0.836
   517   8 o    1.850 --   518 h    0.859   519 h    0.804
   518   1 h    0.891 --   517 o    0.859
   519   1 h    0.875 --   517 o    0.804
   520   8 o    1.835 --   522 h    0.812   521 h    0.786
   521   1 h    0.875 --   520 o    0.786
   522   1 h    0.891 --   520 o    0.812
   523   8 o    1.856 --   525 h    0.843   524 h    0.822
   524   1 h    0.873 --   523 o    0.822
   525   1 h    0.891 --   523 o    0.843
   526   8 o    1.846 --   527 h    0.851   528 h    0.817
   527   1 h    0.890 --   526 o    0.851
   528   1 h    0.887 --   526 o    0.817
   529   8 o    1.843 --   531 h    0.858   530 h    0.856
   530   1 h    0.888 --   529 o    0.856
   531   1 h    0.893 --   529 o    0.858
 ---------------------------------------------------------------------------

Topologies differ in total number of bonds
Writing topology from bond orders to xtbtopo.mol

molecular dipole:
                 x           y           z       tot (Debye)
 q only:       -1.178      -1.000      -1.785
   full:       -1.348      -1.947      -1.757       7.494
molecular quadrupole (traceless):
                xx          xy          yy          xz          yz          zz
 q only:      119.561      10.376     -25.827      14.194     -10.871     -93.734
  q+dip:      135.114      11.672     -30.848      10.173     -15.855    -104.267
   full:      135.808      12.488     -31.882      10.256     -16.382    -103.925


           -------------------------------------------------
          | TOTAL ENERGY             -901.410630797906 Eh   |
          | GRADIENT NORM               0.105079924894 Eh/α |
          | HOMO-LUMO GAP               7.628684201101 eV   |
           -------------------------------------------------

------------------------------------------------------------------------
 * finished run on 2022/11/17 at 06:54:58.226     
------------------------------------------------------------------------
 total:
 * wall-time:     0 d,  0 h,  0 min,  9.051 sec
 *  cpu-time:     0 d,  0 h,  0 min, 13.499 sec
 * ratio c/w:     1.491 speedup
 SCF:
 * wall-time:     0 d,  0 h,  0 min,  8.509 sec
 *  cpu-time:     0 d,  0 h,  0 min, 12.475 sec
 * ratio c/w:     1.466 speedup

