531
 energy: -901.194359676144 gnorm: 0.027491904786 xtb: 6.5.1 (579679a)
o            0.55768198586008       -2.58326835043173       -1.08920481894667
h           -0.38510462547115       -2.82280642460845       -0.98905085993898
h            0.62985127856401       -2.31254764394854       -2.03644416856488
o            1.49618160128886       -4.52626910376602        0.80737731169401
h            1.49428734456437       -5.31763929744495        1.38022922284618
h            2.09938778892515       -4.67708617637343        0.05685081752552
o            2.36710855008657        2.50914179600939        0.04082028431262
h            3.06549629429214        2.55047082347504        0.71826594336130
h            1.58131959668981        2.92996204676648        0.43356010097578
o            3.10686305355451       -2.17576091003919        0.33103137998775
h            2.27966652399922       -2.50688557021855       -0.03249025558576
h            3.32454072045909       -1.34871606017032       -0.13698648349056
o           -5.87814023504337        1.03907010699838        4.65607484212309
h           -6.03950144467276        1.51877857479240        3.81495131115997
h           -5.32225455411699        0.28000768892174        4.41473581951388
o            3.09455223109675       -4.49628881894756       -1.35279095719199
h            3.07412989629109       -3.58921712840284       -1.69055321675551
h            3.28851792130100       -5.06090718496413       -2.12084198263438
o           -2.60189102470421       -3.14609862691406        2.43893189382283
h           -2.09736836531224       -3.64265234844526        1.76599183825661
h           -2.02143768275694       -2.45664434957973        2.79035489721883
o            3.64851311210180       -3.97030358824667        5.70876385965761
h            3.33142919731952       -3.21839198290682        5.13960326826290
h            3.78898832656883       -3.54007621486191        6.57874040824356
o           -1.17759489494647       -4.53387418196056        0.62929393311576
h           -1.24863767455505       -5.49094727086611        0.75520621883430
h           -0.21847306543054       -4.36143893715838        0.65673672256993
o            0.45301238137084        3.77355840240040        1.45977508376621
h           -0.34846956967019        4.27973199143893        1.20834968899297
h            0.24143600690002        3.28418253780322        2.27553806478211
o           -1.73493189093817       -0.31783090251273       -2.03142902492976
h           -1.68070281656921       -1.23176949751993       -1.72889131389831
h           -2.33767237961759        0.16243443882994       -1.42394881209015
o            2.37798763357711        2.54576377801162        2.98661249021077
h            3.07257809503545        3.21746591959309        2.94432889453362
h            2.30948374983311        2.33298776105215        3.94196471987612
o           -0.98788099704710        3.00481720832192       -1.11869641631039
h           -1.26762931149303        3.75511944031111       -0.57719031855004
h           -1.63137644984572        2.92580115175288       -1.85140910163144
o           -4.34994451782481        3.87102673295755        1.41660712037131
h           -3.96424040120928        3.77041181579214        0.51591086743526
h           -5.06167946129242        4.51298584349832        1.30480300244420
o           -0.56014762583102        0.81610795108406       -4.16355943781712
h           -0.90917688064935        0.29047730335011       -3.42060686134628
h           -0.85839703716051        0.37530553257999       -4.97888408387368
o           -2.90623097116842        6.11336154682012       -1.95239649226263
h           -3.07228285026282        5.99037330613065       -2.89227194916342
h           -1.95596514523151        6.34173539233261       -1.88708529212203
o           -4.37829137859478        0.78480400068813       -3.09666423790081
h           -5.05587840703055        1.41377026103431       -2.79366381111197
h           -4.34265910320063        0.04145611905362       -2.46979509155986
o            0.16217015235451       -1.90127463000526       -3.57153562794323
h           -0.40203016370089       -2.64368526492665       -3.83969891256406
h            0.59126089354478       -1.56442052765757       -4.37577217422862
o            2.50752626795894        0.14719124414384        2.00726011927251
h            2.46057822721477        1.09960696618160        2.26523949033768
h            3.38902425737610       -0.12404678209128        2.28862149556866
o            4.73674562763844       -1.63088597469118        2.32621110648081
h            4.12190267958195       -1.97410525414856        1.65215804531786
h            5.50916678787571       -2.22223126322788        2.34048195965717
o           -5.73871516997903        5.83959808111902       -2.50099236316547
h           -5.53179470767630        6.75834782448023       -2.67097124169503
h           -5.12310635659309        5.30659366176999       -3.05713594536794
o            1.76845198122836        0.69066276432208       -2.80506238505471
h            1.76260285497086        1.66631939280379       -2.69777534200834
h            1.01360370476104        0.53624239684919       -3.40262989511377
o            4.81379846538986        2.35397499000522        1.11110095211534
h            5.49889550942847        2.97020914893282        0.80949273119789
h            5.09533409616961        1.48000171098960        0.75767910070492
o            8.62709731390336       -1.00326873091983        0.08715790431382
h            9.51870876168202       -1.32488067718166        0.30413566138344
h            7.98010590562901       -1.54106973472409        0.59139277973228
o           -5.93630720674679        0.81596211949745       -0.28060190586639
h           -6.11268089898325       -0.01322101127327       -0.73188044449816
h           -6.28153165001792        0.68642456281570        0.63032855171976
o            3.61149257963652        0.21456094959392       -0.86320671091407
h            4.43763648308897        0.48091733018166       -1.29707971826093
h            3.20886991819037        1.03117091873109       -0.54046388035734
o           -4.22749721758521       -1.16948698319863        3.79939987110307
h           -3.27130131739839       -1.25941458995547        3.90503735120199
h           -4.37127188444630       -1.19000624009454        2.82894922263815
o           -4.19274233110970        0.37489813181807       -5.77923398011951
h           -4.63738222225729       -0.47923610413805       -5.95210887888063
h           -4.15242931874961        0.40921618943397       -4.79989923767967
o           -5.54791830698047        2.70284359023818       -5.36497281795336
h           -5.08458243626753        1.96204565646713       -5.79163029116945
h           -6.05964615690382        2.26858836152729       -4.65164615283369
o            5.93350422170679       -3.36238390974789        4.25837419112058
h            5.26374600014534       -3.69550762224164        4.87745562998410
h            6.33366883348083       -4.13268059678203        3.82992251447108
o            5.00498668785229       -4.05206514196125       -5.29131496768738
h            5.40115890989656       -3.32249017044895       -4.76460471365418
h            4.96620340445046       -3.70927926326408       -6.19461865808159
o           -8.46388608224567       -3.77564563390691        0.22150666304943
h           -8.50147737355794       -4.69357618574358        0.52306673527125
h           -8.80753381326301       -3.25173642341333        0.99403218307642
o           -3.21696404843957        1.07749814393288       -0.26340770106196
h           -4.18361467085657        0.94447851907402       -0.24481069938742
h           -3.08876984323290        2.00822462078268       -0.49457689481470
o            0.41219305805779       -5.22047061505988       -1.89944122887540
h            0.73949659669159       -5.19718230702062       -2.82850409007950
h            0.66283173560432       -4.37490815660896       -1.48991118077045
o            0.82053464457313       -0.03054264136640        4.10523397062851
h            1.44134437977624       -0.18221829379438        3.36618159759561
h            0.47809012124414        0.86415914632603        3.97404473110006
o            3.77707376027393       -5.93380511927898       -3.57057436803243
h            4.43436247569266       -6.36842479215616       -2.98557375020743
h            4.28393239054946       -5.39233478271499       -4.19351787523797
o            2.92435435168679       -1.96363809921944        4.22084543780230
h            2.13583457764372       -2.15847572554318        3.66491205867996
h            3.66750832903950       -1.82980870833572        3.59771527261473
o           -5.93615711176090       -3.43161423722472        1.07226278681837
h           -5.24565148232368       -3.83141462593277        0.50157397976565
h           -6.80629532513204       -3.53572338536571        0.63738857776490
o            5.69569914706971        1.39202961145143       -2.16150940826170
h            5.33004966519372        2.27062331413809       -1.92479331942324
h            6.52278412123544        1.27167940121729       -1.64233415422902
o           -2.40791105700089        2.55370328657508       -3.33854616575943
h           -1.67714377489943        2.07117841814201       -3.77537664153158
h           -3.10100436949773        1.87850493151806       -3.18082100769301
o            4.45027938891629       -4.44664796555309        1.22749719071641
h            4.18031254666264       -5.26811038084027        0.78026250760975
h            4.04684088894575       -3.73189752376550        0.70944333358003
o            1.09211902017628       -1.21756969193731        6.55809624085934
h            1.13446054024818       -0.77612891019305        5.69046140425553
h            0.30346773084496       -0.87660316427108        6.99854864889502
o            6.32749829535307       -0.73608538780792        4.79098004850701
h            5.84930203101900       -0.22421629419771        4.10337045000131
h            6.14217621104715       -1.67587295241743        4.61558017717985
o           -1.45769817885927       -1.40806620696396        4.31405632065464
h           -1.44448384608498       -1.91745872610392        5.14481238907927
h           -0.56781622901971       -1.02141186953622        4.18569672466359
o            1.13181738409347        3.23671623290678       -2.57926596730306
h            1.57484995679030        4.01784348603637       -2.20978635728272
h            0.34574831522226        3.10446234237690       -1.99110089857161
o           -1.22083932263432        7.71212214669213        0.18934701153315
h           -0.77787136773126        7.73722345356301       -0.66666993684815
h           -0.51301312530392        7.76529476435872        0.87525181919693
o           -3.53620079512167       -6.65294456125921        1.04002741130954
h           -3.86549408397060       -6.62681966008290        1.97609882786324
h           -2.69753618473041       -7.12409127524763        1.07898081029522
o           -7.12047154158365        0.19031793174275        2.01608873365299
h           -7.84098196413680       -0.17023982910572        1.47462425648886
h           -6.98837371973915       -0.45541176114812        2.72299073026867
o            9.58450635287740        1.99368845633159       -3.18816260251157
h            8.75366681086051        1.98192204402331       -3.71085395931778
h            9.74121139343902        2.93757248716080       -3.00486888571725
o           -1.85515024838435        2.57989133904535       -6.22955185244025
h           -2.76821225827351        2.53302837039332       -5.93693949748799
h           -1.64889536632027        1.72814283076810       -6.62927528585509
o           -8.67246484959439       -0.70128536503679       -0.02893840841513
h           -8.61416955280257        0.12728670699058       -0.54245349017276
h           -9.62461552385646       -0.86925265855333        0.10069407445813
o            2.37250272258606        2.09371245395133        5.61328583401607
h            2.90345016802635        1.32041474879603        5.86719760965889
h            1.46579930490740        1.94048950386688        5.94454289198299
o           -8.50723746362347        1.47749299682238       -1.55106573859676
h           -7.90509780828820        1.41572924025292       -2.33694536358490
h           -8.08270984360968        2.08552982451073       -0.91390700261017
o           -4.17027628539393        1.41730242750703        2.51099640573688
h           -4.42059196987070        2.26107835592378        2.10496390700740
h           -4.68437504949719        0.72198014471702        2.08838939834558
o            8.70281135777875       -0.95359456922836        3.64703607593892
h            7.91177191726922       -0.86825051744604        4.22894874025046
h            8.82138464877774       -1.89658842654031        3.48244007680943
o            8.04497630211073        1.38953644758307       -0.98417924269082
h            8.33286148090153        0.56876963023141       -0.54476995295801
h            8.67380332956990        1.57287329337366       -1.70594446642765
o           -9.12600017021666        3.35373807494985        3.65232530124823
h           -9.64701862607769        3.02022882739178        2.90507959627517
h           -8.94220305936877        4.28317426571944        3.43579581153702
o            2.06025351225590        1.62180613893379       -5.84564705475814
h            1.37268392684629        2.30156096416806       -5.82586150819355
h            2.70409120012211        1.90332182231561       -5.17885393892127
o           -3.13231539229310       -4.39518691792772        4.66257185962052
h           -2.99659244158483       -3.92997767448797        3.78764075099382
h           -3.96869947659551       -4.02100010754321        5.00180848724705
o            4.82669709889311        5.59314115968468        0.15285592391861
h            5.49894630162409        5.73029555095979        0.82429770582384
h            3.97082646619820        5.58124857058819        0.62201159709166
o           -5.85271991300192        2.80790885889021       -2.07842062727046
h           -6.64911554121460        3.30943258486048       -2.34620295802627
h           -6.06189182109542        2.30697153076594       -1.27015322735886
o           -6.63644237109011        2.84695929306771        2.79330410934559
h           -6.18480654219166        3.66653208653009        3.07176170751088
h           -7.53824486932370        2.90928279768543        3.17175719433358
o           -6.14919930689532        5.67770345773943        0.21352906058916
h           -6.01321672281129        5.62838880931453       -0.75097265682721
h           -5.65494600205064        6.46225340905091        0.47845981650997
o           -7.50699759692286        3.13468424967337        0.32460781138389
h           -7.25038423143087        4.04928099601943        0.17039184459159
h           -7.09812386895702        2.89014659286090        1.19418909140671
o            5.91558593576956        0.01290365160290        0.56005188733980
h            6.73481384746388        0.34654490224849        0.97208549211276
h            5.49369248271158       -0.53120674171641        1.25397070146022
o            4.14901317946684        4.58475926673935        3.51599786819613
h            5.00335067100375        4.75950810342664        3.07016659155903
h            4.39971546220749        4.07248774066652        4.30252619632438
o            5.52801574642686       -1.98675055647500       -1.32480630478813
h            4.60032552479534       -1.92409113958845       -1.61455926350588
h            5.70785914614133       -1.25131283390705       -0.71412099714611
o           -0.79916674745571        5.76256936686592        3.68572426834918
h           -1.48708045423325        5.07883577430075        3.73667403712233
h           -0.04019158797112        5.42087192646741        4.18323107919185
o           -1.42278202509849       -0.32848532912391        7.31198111311571
h           -1.83771382270249       -1.18881736660503        7.15181542877571
h           -2.09886451027375        0.22447263087406        7.72049392901545
o           -4.73621885998728       -1.09164887281978        1.24784089782885
h           -5.27119655895361       -1.90849733373527        1.23805090083724
h           -4.22518990599906       -1.11069935075252        0.42739552524746
o            5.81731862108644       -1.89864575514912       -3.99347749859666
h            6.06099423837859       -1.89734493016979       -3.04830237338758
h            5.07938844404923       -1.26280692864068       -4.06472693938642
o           -6.38472468664388       -4.67940185505882        3.34924926546657
h           -6.26341427069880       -4.12694206041440        4.12857089586357
h           -6.12963925671005       -4.12416174927219        2.57348500063986
o            3.01582899180043       -1.96903480751866       -2.44078112905140
h            2.83661358172717       -2.28861715346909       -3.34960510243323
h            2.69707371307348       -1.05942795110964       -2.39830985609161
o            5.09537371426613        0.16848031206900       -6.61784517831591
h            4.64098579772322        0.21685573378063       -5.75521865404779
h            6.01505977244034       -0.09431638644981       -6.42691430832994
o           -7.24483789154518        1.25357224429747       -3.84239954561321
h           -7.11134718083033        0.28510410424908       -3.96536983320485
h           -8.07113149428438        1.45217615397162       -4.33185551570294
o            8.10802783526077       -1.34844960749475       -2.50817206649932
h            8.31596619396919       -1.20911072692236       -1.56270798861668
h            8.84431181105090       -0.99479373750605       -3.03845425970087
o            6.60130165245061       -4.32870308649567       -0.82753330632400
h            6.04026342020204       -3.53168888594028       -0.97686804496910
h            7.22739438766357       -4.29277908232833       -1.57867072873547
o          -10.34858961438812       -2.76454168961405       -1.51964681341154
h          -10.96334318245309       -2.34072494023463       -0.90979140389210
h           -9.64840354974938       -3.15105627495414       -0.96149490549534
o           -0.24931101746960        1.92455028504593        6.12364909396608
h           -0.61499422514277        1.08566668977499        6.43837972246626
h           -0.56698221309726        2.05536834950892        5.21439812612326
o            4.12418683636994        0.20094498595677       -4.06713922946253
h            4.70695870790196        0.69225620067445       -3.46884548367062
h            3.22143718242437        0.36751398280293       -3.73244106591514
o            1.52716906531398        4.78338594271145        4.83846297130146
h            2.39373550431630        5.02906029511860        4.50420721241265
h            1.64984415673208        3.94907081291682        5.30362014324591
o            7.21211003838158        1.84463893545958       -4.35432320581890
h            6.67213186147938        2.34680547637015       -5.00740274042812
h            6.64489697480588        1.73727869162014       -3.56377622796354
o            0.90250347686840       -2.63807968954671        2.64301799078858
h            1.26902944246308       -3.16829590245494        1.91694308695160
h            0.35363322889089       -3.25639950278086        3.15572059242171
o           -6.85671082975451       -1.98115484389409       -1.45541266927101
h           -7.57342724815987       -1.64421272935467       -0.87272999263068
h           -6.95750170380366       -2.94977098282886       -1.47447240290264
o           -8.05238808152285        3.89235587567875       -5.49045848051127
h           -8.66563005232841        3.17976993229054       -5.69857094310317
h           -7.16120983060395        3.57176481272211       -5.70360527293650
o           -0.32166623595686        6.74582488484221       -2.24914503293099
h            0.46354347619391        6.24045073432936       -1.96612502978878
h           -0.52818939329607        6.49470064114086       -3.16507188655411
o            7.90084343128285        1.05059222842927        2.04381237078084
h            8.71641148291708        1.35486805409924        1.58265191676636
h            8.17459227548529        0.26513769910105        2.55893836898946
o           10.85759469966427        0.41498099999941       -1.25812451997484
h           11.12598912426317       -0.44188184760356       -1.62850436721200
h           10.66150936485660        0.98302359369780       -2.01214524331918
o            6.59728372642362        4.82633873622660        2.43173984309022
h            7.04822138828674        4.29542079878340        3.10731736861203
h            6.81652636628246        4.38950804025429        1.59341393186793
o            7.01106015723422        3.57943228581052        0.04735584420625
h            6.80340268880037        3.97085415099565       -0.82387039436347
h            7.42886040377237        2.71874493026280       -0.17476592578585
o            1.35065906648968       -7.37806869958440       -0.80463978964804
h            1.46880379942861       -7.99458518768608       -1.52656720756952
h            1.06520972927297       -6.51412230953864       -1.21478566059570
o            7.03398929200697       -2.68125284794149        1.43561225010788
h            7.77336185351010       -3.03666738406688        1.96026502723247
h            6.79769435852993       -3.34974217052083        0.77598504400659
o            1.15436824010101       -6.37385250165246        2.73005045401392
h            2.04246811530599       -6.29173102307144        3.13103072721208
h            0.58303766090724       -5.78536115225104        3.26205123155671
o          -11.35095575269160       -0.74412394406223        0.26510897420420
h          -11.32698750211556       -0.62673316025352        1.22333364270250
h          -11.62437726772452        0.10936205785349       -0.10540130162142
o           -7.39807064352884       -1.65645804911848        4.10613554034478
h           -7.92282070654401       -1.01192442091686        4.59476417921141
h           -6.77783834187221       -2.06738721999395        4.72766596748110
o           -7.93457910125291       -6.11841303075138        1.64028755931899
h           -8.48296424657557       -6.77073046483172        2.07463828072094
h           -7.47400733838340       -5.62350079546815        2.34631988181545
o           -1.37042909605547       -4.15575585414122       -4.06183740325478
h           -1.77991415076488       -3.89540595169553       -4.90542877938881
h           -0.66869346796050       -4.78034381979369       -4.27657138753226
o            5.38823949359496       -6.68452114532955       -1.57465620200794
h            5.79459608229441       -5.84367006644152       -1.29669206339684
h            4.82755454661365       -6.95114326559325       -0.83550093918457
o           -5.41974577297179       -2.07188171087670       -5.80139993206316
h           -5.08496684943171       -2.65261827049770       -5.09854089257257
h           -6.27877743657334       -1.78945239998003       -5.45882087634680
o           -1.73101824600114       -6.86025538852561       -1.83917047266734
h           -1.04446800709729       -6.17012161915417       -1.89732293647216
h           -1.74153400732554       -7.15363565750684       -0.92501729547984
o            9.38437583134536       -3.47036097562985        2.47863439883956
h            9.24246955211093       -4.32953513941832        2.04063144797638
h           10.11049495337772       -3.05158010008316        1.99979753936462
o            3.61959245008472       -5.70772040285437        3.54458636784385
h            3.62120047013557       -5.21704142057843        4.37897435303176
h            3.82301114121236       -5.06535619745089        2.83937169037165
o           -4.39782792008246       -6.50428766145135        3.49973581730493
h           -5.22306155791991       -5.98449792837598        3.45244796759182
h           -3.79290012990567       -5.93838466515404        4.01046706702074
o           -3.92462952698430       -4.41408356167453       -0.38276685648789
h           -3.63289116625082       -5.09671546654175        0.24971858663159
h           -4.13409262565079       -4.90582216445203       -1.20378847081606
o           -5.28447050802230       -2.89308457598801        5.36921993355939
h           -5.07517362524018       -2.44697334927715        6.20041329764408
h           -4.87936559230667       -2.26923510756688        4.69517979079487
o           10.22505185644984       -4.26599405441368       -0.97295916243170
h            9.88862472606252       -4.93013242229706       -0.35924862157015
h            9.55407563730080       -4.19784771793602       -1.67594315891099
o            5.27253143183023        2.85798903414418        5.30858519858528
h            6.18605898527543        2.82850463307988        4.96544926172023
h            5.28127689911868        2.59032616907711        6.22654901761881
o           -8.58225245926389        0.81542909034689        4.89070192135504
h           -7.60982267858279        0.92423003555280        4.89109989331785
h           -8.92690944368740        1.70813594442440        4.76980328117146
o           -1.68371552228981        5.09980820475490        0.61913112775905
h           -1.48912273444344        6.03845133677027        0.40638310599704
h           -2.37023790129622        5.13911807050749        1.30179377752324
o           -9.86604543915735       -0.69820562012234       -3.16752293312676
h          -10.11455109860169       -1.50489345648021       -2.66735087823079
h           -9.67773385672819       -0.03088390433493       -2.49908563674197
o           -9.26998048205822       -2.56903788065220        2.37728739474209
h           -9.67737065056194       -1.68620017445915        2.37816454986071
h           -8.52467421590556       -2.48040190617540        2.99389868143478
o           -9.68798830817676        1.58056618595984       -4.89158994807284
h           -9.99683852942256        0.68227920300036       -4.72315163219999
h          -10.12168737133947        2.13244806265796       -4.21218009610613
o            8.28191570832809       -3.88974173432110       -2.84875565110064
h            8.17814603765564       -2.89054687962370       -2.77843170052516
h            8.03976432309447       -4.13594507317924       -3.74083616203637
o           -0.30874562985532       -4.57576774287373        4.09822353877894
h            0.14831051074043       -4.34585045950482        4.94439303077354
h           -1.24079009118316       -4.70025294162456        4.30350752743308
o           -2.01695449887298       -3.03948008410619       -1.58377728026178
h           -1.87883366358717       -3.52385251986740       -2.41440316269873
h           -2.46016835905297       -3.65123395184943       -0.95804264571547
o           -3.96637590921143        7.55004976442853        0.11080169512027
h           -3.70367894198360        6.97016987922818       -0.62894987764786
h           -3.19895916281001        8.12684049911551        0.21219407361347
o            3.57293952461293        3.04188607398259       -4.08608240220519
h            3.87045029761075        3.19596735008734       -3.16998828989793
h            3.10498129372875        3.85731827552952       -4.32793786086685
o            4.17517134104008       -2.30029293488552       -7.24391579393098
h            4.47535993088928       -1.38081975529184       -7.07181674459741
h            3.91992445672086       -2.32651676035280       -8.16433796203662
o           -0.75472339937908       -7.27288185484364        0.94230728387568
h           -0.04953870220416       -7.46284468931898        0.29628670711131
h           -0.26754544227807       -7.15063092028539        1.76960720432103
o            7.54327948055654       -0.52337353584274       -5.52348058904752
h            7.04008538844174       -1.12701995903865       -4.93787875857790
h            7.46747855228934        0.35967416693068       -5.09929181440273
o           11.42852615859497       -1.98085106692265       -2.40760843302933
h           11.19659807921255       -2.89903362483617       -2.24144085394584
h           11.05650291021012       -1.73500954983069       -3.26652165264151
o           -4.09752071134395       -5.98500026142924       -2.55455145769634
h           -3.20127085739531       -6.36396836426945       -2.39372652831720
h           -4.73316838177041       -6.66301105342554       -2.31969688198519
o           -8.00256005614594        5.63230638405118        2.54930651928285
h           -7.65196782997292        5.76113765449832        1.66257078975137
h           -7.22702606809761        5.65396299754178        3.13154361116461
o           -7.39843973369429       -1.35874301153969       -4.00481957374435
h           -7.09193055233166       -1.64057078939240       -3.11807005671443
h           -8.36588484033757       -1.26729935042360       -3.90699550472053
o           -4.29878319057141       -0.63933396848428        6.71190076338949
h           -3.83876475735077       -0.14928021565012        6.00613908646825
h           -4.85042555039187        0.00511050562575        7.15440849483495
o           -9.96145081110574        2.35216718667304        1.25069096266461
h          -10.64264530130657        2.27747771580257        0.56719944017670
h           -9.13746549845270        2.66408673913379        0.83245572256719
o            2.42509757230639        5.43314111702890       -4.75749763811343
h            1.62273739424697        5.00975894260948       -5.10102081674250
h            2.14967105345963        6.10678499693065       -4.13213828093232
o            7.65958575426599        2.81258139745702        3.99725542594655
h            8.52338999222500        2.76343089361687        4.40536124788352