      -----------------------------------------------------------      
     |                   =====================                   |     
     |                           x T B                           |     
     |                   =====================                   |     
     |                         S. Grimme                         |     
     |          Mulliken Center for Theoretical Chemistry        |     
     |                    University of Bonn                     |     
      -----------------------------------------------------------      

   * xtb version 6.5.1 (579679a) compiled by 'ehlert@majestix' on 2022-07-11

   xtb is free software: you can redistribute it and/or modify it under
   the terms of the GNU Lesser General Public License as published by
   the Free Software Foundation, either version 3 of the License, or
   (at your option) any later version.
   
   xtb is distributed in the hope that it will be useful,
   but WITHOUT ANY WARRANTY; without even the implied warranty of
   MERCHANTABILITY or FITNESS FOR A PARTICULAR PURPOSE.  See the
   GNU Lesser General Public License for more details.
   
   Cite this work as:
   * C. Bannwarth, E. Caldeweyher, S. Ehlert, A. Hansen, P. Pracht,
     J. Seibert, S. Spicher, S. Grimme, WIREs Comput. Mol. Sci., 2020, 11,
     e01493. DOI: 10.1002/wcms.1493
   
   for GFN2-xTB:
   * C. Bannwarth, S. Ehlert and S. Grimme., J. Chem. Theory Comput., 2019,
     15, 1652-1671. DOI: 10.1021/acs.jctc.8b01176
   for GFN1-xTB:
   * S. Grimme, C. Bannwarth, P. Shushkov, J. Chem. Theory Comput., 2017,
     13, 1989-2009. DOI: 10.1021/acs.jctc.7b00118
   for GFN0-xTB:
   * P. Pracht, E. Caldeweyher, S. Ehlert, S. Grimme, ChemRxiv, 2019, preprint.
     DOI: 10.26434/chemrxiv.8326202.v1
   for GFN-FF:
   * S. Spicher and S. Grimme, Angew. Chem. Int. Ed., 2020, 59, 15665-15673.
     DOI: 10.1002/anie.202004239
   
   for ALPB and GBSA implicit solvation:
   * S. Ehlert, M. Stahn, S. Spicher, S. Grimme, J. Chem. Theory Comput.,
     2021, 17, 4250-4261. DOI: 10.1021/acs.jctc.1c00471
   
   for DFT-D4:
   * E. Caldeweyher, C. Bannwarth and S. Grimme, J. Chem. Phys., 2017,
     147, 034112. DOI: 10.1063/1.4993215
   * E. Caldeweyher, S. Ehlert, A. Hansen, H. Neugebauer, S. Spicher,
     C. Bannwarth and S. Grimme, J. Chem. Phys., 2019, 150, 154122.
     DOI: 10.1063/1.5090222
   * E. Caldeweyher, J.-M. Mewes, S. Ehlert and S. Grimme, Phys. Chem. Chem. Phys.
     2020, 22, 8499-8512. DOI: 10.1039/D0CP00502A
   
   for sTDA-xTB:
   * S. Grimme and C. Bannwarth, J. Chem. Phys., 2016, 145, 054103.
     DOI: 10.1063/1.4959605
   
   in the mass-spec context:
   * V. Asgeirsson, C. Bauer and S. Grimme, Chem. Sci., 2017, 8, 4879.
     DOI: 10.1039/c7sc00601b
   * J. Koopman and S. Grimme, ACS Omega 2019, 4, 12, 15120-15133.
     DOI: 10.1021/acsomega.9b02011
   
   for metadynamics refer to:
   * S. Grimme, J. Chem. Theory Comput., 2019, 155, 2847-2862
     DOI: 10.1021/acs.jctc.9b00143
   
   for SPH calculations refer to:
   * S. Spicher and S. Grimme, J. Chem. Theory Comput., 2021, 17, 1701-1714
     DOI: 10.1021/acs.jctc.0c01306
   
   with help from (in alphabetical order)
   P. Atkinson, C. Bannwarth, F. Bohle, G. Brandenburg, E. Caldeweyher
   M. Checinski, S. Dohm, S. Ehlert, S. Ehrlich, I. Gerasimov, C. Hölzer
   A. Katbashev, J. Koopman, C. Lavigne, S. Lehtola, F. März, M. Müller,
   F. Musil, H. Neugebauer, J. Pisarek, C. Plett, P. Pracht, F. Pultar,
   J. Seibert, P. Shushkov, S. Spicher, M. Stahn, M. Steiner, T. Strunk,
   J. Stückrath, T. Rose, and J. Unsleber
   
 * started run on 2022/11/24 at 12:04:44.002     

           -------------------------------------------------
          |                Calculation Setup                |
           -------------------------------------------------

          program call               : xtb solvent_cluster.coord --gfn2 --input xcontrol --opt 1
          hostname                   : cn0430
          coordinate file            : solvent_cluster.coord
          omp threads                :                     2

   ID    Z sym.   atoms
    1    8 o      1, 4, 7, 10, 13, 16, 19, 22, 25, 28, 31, 34, 37, 40, 43,
                  46, 49, 52, 55, 58, 61, 64, 67, 70, 73, 76, 79, 82, 85, 88,
                  91, 94, 97, 100, 103, 106, 109, 112, 115, 118, 121, 124,
                  127, 130, 133, 136, 139, 142, 145, 148, 151, 154, 157, 160,
                  163, 166, 169, 172, 175, 178, 181, 184, 187, 190, 193, 196,
                  199, 202, 205, 208, 211, 214, 217, 220, 223, 226, 229, 232,
                  235, 238, 241, 244, 247, 250, 253, 256, 259, 262, 265, 268,
                  271, 274, 277, 280, 283, 286, 289, 292, 295, 298, 301, 304,
                  307, 310, 313, 316, 319, 322, 325, 328, 331, 334, 337, 340,
                  343, 346, 349, 352, 355, 358, 361, 364, 367, 370, 373, 376,
                  379, 382, 385, 388, 391, 394, 397, 400, 403, 406, 409, 412,
                  415, 418, 421, 424, 427, 430, 433, 436, 439, 442, 445, 448,
                  451, 454, 457, 460, 463, 466, 469, 472, 475, 478, 481, 484,
                  487, 490, 493, 496, 499, 502, 505, 508, 511, 514, 517, 520,
                  523, 526, 529, 532, 535, 538, 541, 544, 547, 550, 553, 556,
                  559, 562, 565, 568, 571, 574, 577, 580, 583, 586, 589, 592,
                  595, 598, 601, 604, 607, 610, 613, 616, 619, 622, 625, 628,
                  631, 634, 637, 640, 643, 646, 649, 652, 655, 658, 661, 664,
                  667, 670, 673, 676, 679, 682, 685, 688, 691, 694, 697, 700,
                  703, 706, 709, 712, 715, 718, 721, 724, 727, 730, 733, 736,
                  739, 742, 745, 748, 751, 754
    2    1 h      2, 3, 5, 6, 8, 9, 11, 12, 14, 15, 17, 18, 20, 21, 23, 24,
                  26, 27, 29, 30, 32, 33, 35, 36, 38, 39, 41, 42, 44, 45, 47,
                  48, 50, 51, 53, 54, 56, 57, 59, 60, 62, 63, 65, 66, 68, 69,
                  71, 72, 74, 75, 77, 78, 80, 81, 83, 84, 86, 87, 89, 90, 92,
                  93, 95, 96, 98, 99, 101, 102, 104, 105, 107, 108, 110, 111,
                  113, 114, 116, 117, 119, 120, 122, 123, 125, 126, 128, 129,
                  131, 132, 134, 135, 137, 138, 140, 141, 143, 144, 146, 147,
                  149, 150, 152, 153, 155, 156, 158, 159, 161, 162, 164, 165,
                  167, 168, 170, 171, 173, 174, 176, 177, 179, 180, 182, 183,
                  185, 186, 188, 189, 191, 192, 194, 195, 197, 198, 200, 201,
                  203, 204, 206, 207, 209, 210, 212, 213, 215, 216, 218, 219,
                  221, 222, 224, 225, 227, 228, 230, 231, 233, 234, 236, 237,
                  239, 240, 242, 243, 245, 246, 248, 249, 251, 252, 254, 255,
                  257, 258, 260, 261, 263, 264, 266, 267, 269, 270, 272, 273,
                  275, 276, 278, 279, 281, 282, 284, 285, 287, 288, 290, 291,
                  293, 294, 296, 297, 299, 300, 302, 303, 305, 306, 308, 309,
                  311, 312, 314, 315, 317, 318, 320, 321, 323, 324, 326, 327,
                  329, 330, 332, 333, 335, 336, 338, 339, 341, 342, 344, 345,
                  347, 348, 350, 351, 353, 354, 356, 357, 359, 360, 362, 363,
                  365, 366, 368, 369, 371, 372, 374, 375, 377, 378, 380, 381,
                  383, 384, 386, 387, 389, 390, 392, 393, 395, 396, 398, 399,
                  401, 402, 404, 405, 407, 408, 410, 411, 413, 414, 416, 417,
                  419, 420, 422, 423, 425, 426, 428, 429, 431, 432, 434, 435,
                  437, 438, 440, 441, 443, 444, 446, 447, 449, 450, 452, 453,
                  455, 456, 458, 459, 461, 462, 464, 465, 467, 468, 470, 471,
                  473, 474, 476, 477, 479, 480, 482, 483, 485, 486, 488, 489,
                  491, 492, 494, 495, 497, 498, 500, 501, 503, 504, 506, 507,
                  509, 510, 512, 513, 515, 516, 518, 519, 521, 522, 524, 525,
                  527, 528, 530, 531, 533, 534, 536, 537, 539, 540, 542, 543,
                  545, 546, 548, 549, 551, 552, 554, 555, 557, 558, 560, 561,
                  563, 564, 566, 567, 569, 570, 572, 573, 575, 576, 578, 579,
                  581, 582, 584, 585, 587, 588, 590, 591, 593, 594, 596, 597,
                  599, 600, 602, 603, 605, 606, 608, 609, 611, 612, 614, 615,
                  617, 618, 620, 621, 623, 624, 626, 627, 629, 630, 632, 633,
                  635, 636, 638, 639, 641, 642, 644, 645, 647, 648, 650, 651,
                  653, 654, 656, 657, 659, 660, 662, 663, 665, 666, 668, 669,
                  671, 672, 674, 675, 677, 678, 680, 681, 683, 684, 686, 687,
                  689, 690, 692, 693, 695, 696, 698, 699, 701, 702, 704, 705,
                  707, 708, 710, 711, 713, 714, 716, 717, 719, 720, 722, 723,
                  725, 726, 728, 729, 731, 732, 734, 735, 737, 738, 740, 741,
                  743, 744, 746, 747, 749, 750, 752, 753, 755, 756

molecular fragmentation (1/2 indicates fragments):
111222222222222222222222222222222222222222222222222222222222222222222222
222222222222222222222222222222222222222222222222222222222222222222222222
222222222222222222222222222222222222222222222222222222222222222222222222
222222222222222222222222222222222222222222222222222222222222222222222222
222222222222222222222222222222222222222222222222222222222222222222222222
222222222222222222222222222222222222222222222222222222222222222222222222
222222222222222222222222222222222222222222222222222222222222222222222222
222222222222222222222222222222222222222222222222222222222222222222222222
222222222222222222222222222222222222222222222222222222222222222222222222
222222222222222222222222222222222222222222222222222222222222222222222222
222222222222222222222222222222222222
# atoms in fragment 1/2:     3   753
 fragment masses (1/2) :       18.02     4521.84
CMA distance (Bohr)    :  17.571
constraining FC (au)   :  0.0500

           -------------------------------------------------
          |                 G F N 2 - x T B                 |
           -------------------------------------------------

        Reference                      10.1021/acs.jctc.8b01176
      * Hamiltonian:
        H0-scaling (s, p, d)           1.850000    2.230000    2.230000
        zeta-weighting                 0.500000
      * Dispersion:
        s8                             2.700000
        a1                             0.520000
        a2                             5.000000
        s9                             5.000000
      * Repulsion:
        kExp                           1.500000    1.000000
        rExp                           1.000000
      * Coulomb:
        alpha                          2.000000
        third order                    shell-resolved
        anisotropic                    true
        a3                             3.000000
        a5                             4.000000
        cn-shift                       1.200000
        cn-exp                         4.000000
        max-rad                        5.000000


          ...................................................
          :                      SETUP                      :
          :.................................................:
          :  # basis functions                1512          :
          :  # atomic orbitals                1512          :
          :  # shells                         1008          :
          :  # electrons                      2016          :
          :  max. iterations                   250          :
          :  Hamiltonian                  GFN2-xTB          :
          :  restarted?                      false          :
          :  GBSA solvation                  false          :
          :  PC potential                    false          :
          :  electronic temp.          300.0000000     K    :
          :  accuracy                    1.0000000          :
          :  -> integral cutoff          0.2500000E+02      :
          :  -> integral neglect         0.1000000E-07      :
          :  -> SCF convergence          0.1000000E-05 Eh   :
          :  -> wf. convergence          0.1000000E-03 e    :
          :  Broyden damping             0.4000000          :
          ...................................................

 iter      E             dE          RMSdq      gap      omega  full diag
   1  -1290.9941919 -0.129099E+04  0.408E+00    8.39       0.0  T
   2  -1291.0777198 -0.835279E-01  0.242E+00    7.11       1.0  T
   3  -1291.1104035 -0.326837E-01  0.215E-01    5.24       1.0  T
   4  -1291.1161218 -0.571829E-02  0.470E-02    5.75       1.0  T
   5  -1291.1162149 -0.930685E-04  0.314E-02    5.67       1.0  T
   6  -1291.1162581 -0.432224E-04  0.468E-03    5.72       1.0  T
   7  -1291.1162610 -0.290634E-05  0.777E-04    5.71       4.7  T
   8  -1291.1162610 -0.324096E-07  0.399E-04    5.71       9.1  T
   9  -1291.1162610 -0.153912E-07  0.666E-05    5.71      54.6  T

   *** convergence criteria satisfied after 9 iterations ***

         #    Occupation            Energy/Eh            Energy/eV
      -------------------------------------------------------------
         1        2.0000           -0.7026109             -19.1190
       ...           ...                  ...                  ...
      1002        2.0000           -0.3422389              -9.3128
      1003        2.0000           -0.3407804              -9.2731
      1004        2.0000           -0.3337988              -9.0831
      1005        2.0000           -0.3317521              -9.0274
      1006        2.0000           -0.3281987              -8.9307
      1007        2.0000           -0.3262222              -8.8770
      1008        2.0000           -0.3024178              -8.2292 (HOMO)
      1009                         -0.0924621              -2.5160 (LUMO)
      1010                         -0.0905767              -2.4647
      1011                         -0.0683866              -1.8609
      1012                         -0.0625138              -1.7011
      1013                         -0.0583200              -1.5870
       ...                                ...                  ...
      1512                          0.4871807              13.2569
      -------------------------------------------------------------
                  HL-Gap            0.2099557 Eh            5.7132 eV
             Fermi-level           -0.1974400 Eh           -5.3726 eV

 SCC (total)                   0 d,  0 h,  0 min, 21.030 sec
 SCC setup                      ...        0 min,  0.042 sec (  0.199%)
 Dispersion                     ...        0 min,  0.111 sec (  0.529%)
 classical contributions        ...        0 min,  0.023 sec (  0.110%)
 integral evaluation            ...        0 min,  0.620 sec (  2.946%)
 iterations                     ...        0 min,  7.816 sec ( 37.168%)
 molecular gradient             ...        0 min, 12.347 sec ( 58.711%)
 printout                       ...        0 min,  0.071 sec (  0.337%)

         :::::::::::::::::::::::::::::::::::::::::::::::::::::
         ::                     SUMMARY                     ::
         :::::::::::::::::::::::::::::::::::::::::::::::::::::
         :: total energy           -1283.277747221032 Eh    ::
         :: gradient norm              0.105170525272 Eh/a0 ::
         :: HOMO-LUMO gap              5.713185140579 eV    ::
         ::.................................................::
         :: SCC energy             -1291.116261034481 Eh    ::
         :: -> isotropic ES            7.158943368276 Eh    ::
         :: -> anisotropic ES         -1.599360579567 Eh    ::
         :: -> anisotropic XC         -0.127370451384 Eh    ::
         :: -> dispersion             -0.804317334417 Eh    ::
         :: repulsion energy           7.678213137523 Eh    ::
         :: add. restraining           0.000000000000 Eh    ::
         :: total charge              -0.000000000000 e     ::
         :::::::::::::::::::::::::::::::::::::::::::::::::::::

      ----------------------------------------------------------- 
     |                       L-ANC optimizer                     |
      ----------------------------------------------------------- 
          low memory version by Sebastian Ehlert

          ...................................................
          :                      SETUP                      :
          :.................................................:
          :   energy convergence        0.1000000E-05 Eh    :
          :   grad. convergence         0.8000000E-03 Eh/a0 :
          :   optimization log               true           :
          :   writing optlog all                1     steps :
          :   Hessian reset                    20     steps :
          :   maximium step len.        1.0000000     a0    :
          :   LBFGS images                     20           :
          ...................................................
 * calculating model hessian...
Using Lindh-Hessian (1995)
 Shifting diagonal of input Hessian by   1.000009047677452E-002
 Lowest  eigenvalues of input Hessian
    0.010000   -0.000000   -0.000000   -0.000000   -0.000000   -0.000000
   -0.000000   -0.000000   -0.000000   -0.000000   -0.000000   -0.000000
   -0.000000   -0.000000   -0.000000   -0.000000   -0.000000   -0.000000
 Highest eigenvalues
    0.307289    0.317454    1.222916    1.235265    1.412597    1.447637
 

........................................................................
.............................. CYCLE    1 ..............................
........................................................................
   1  -1291.1098849 -0.129111E+04  0.404E-02    5.76       0.0  T
   2  -1291.1099028 -0.179181E-04  0.250E-02    5.78       1.0  T
   3  -1291.1099117 -0.890743E-05  0.197E-03    5.80       1.8  T
   4  -1291.1099120 -0.272498E-06  0.561E-04    5.79       6.5  T
   5  -1291.1099120 -0.708337E-08  0.728E-05    5.79      50.0  T
     SCC iter.                  ...        0 min,  4.005 sec
     gradient                   ...        0 min, 12.355 sec
 * total energy  : -1283.2796883 Eh     change       -0.1941057E-02 Eh
   gradient norm :     0.0290175 Eh/a0  converged?    E=F G=F D=F
   step length   :     0.4188303 a0

........................................................................
.............................. CYCLE    2 ..............................
........................................................................
   1  -1291.1158233 -0.129112E+04  0.209E-02    5.76       0.0  T
   2  -1291.1158312 -0.792483E-05  0.128E-02    5.75       1.0  T
   3  -1291.1158339 -0.266442E-05  0.154E-03    5.73       2.4  T
   4  -1291.1158342 -0.248035E-06  0.416E-04    5.74       8.8  T
   5  -1291.1158342 -0.437785E-08  0.518E-05    5.74      70.3  T
     SCC iter.                  ...        0 min,  3.617 sec
     gradient                   ...        0 min, 12.332 sec
 * total energy  : -1283.2810926 Eh     change       -0.1404296E-02 Eh
   gradient norm :     0.0136287 Eh/a0  converged?    E=F G=F D=F
   step length   :     0.3346272 a0

........................................................................
.............................. CYCLE    3 ..............................
........................................................................
   1  -1291.1140448 -0.129111E+04  0.172E-02    5.72       0.0  T
   2  -1291.1140486 -0.382869E-05  0.104E-02    5.72       1.0  T
   3  -1291.1140499 -0.126425E-05  0.107E-03    5.72       3.4  T
   4  -1291.1140500 -0.129458E-06  0.321E-04    5.72      11.3  T
   5  -1291.1140500 -0.370937E-08  0.427E-05    5.72      85.1  T
     SCC iter.                  ...        0 min,  3.471 sec
     gradient                   ...        0 min, 12.350 sec
 * total energy  : -1283.2816605 Eh     change       -0.5679644E-03 Eh
   gradient norm :     0.0220547 Eh/a0  converged?    E=F G=F D=F
   step length   :     0.3485399 a0

........................................................................
.............................. CYCLE    4 ..............................
........................................................................
   1  -1291.1182596 -0.129112E+04  0.150E-02    5.75       0.0  T
   2  -1291.1182616 -0.193269E-05  0.904E-03    5.76       1.0  T
   3  -1291.1182622 -0.590585E-06  0.743E-04    5.78       4.9  T
   4  -1291.1182622 -0.627317E-07  0.224E-04    5.78      16.2  T
     SCC iter.                  ...        0 min,  2.658 sec
     gradient                   ...        0 min, 12.450 sec
 * total energy  : -1283.2822455 Eh     change       -0.5849990E-03 Eh
   gradient norm :     0.0173880 Eh/a0  converged?    E=F G=F D=F
   step length   :     0.3587571 a0

........................................................................
.............................. CYCLE    5 ..............................
........................................................................
   1  -1291.1163781 -0.129112E+04  0.395E-02    5.72       0.0  T
   2  -1291.1163968 -0.186664E-04  0.240E-02    5.76       1.0  T
   3  -1291.1164029 -0.612732E-05  0.232E-03    5.79       1.6  T
   4  -1291.1164035 -0.589437E-06  0.676E-04    5.78       5.4  T
   5  -1291.1164035 -0.133689E-07  0.970E-05    5.78      37.5  T
     SCC iter.                  ...        0 min,  3.230 sec
     gradient                   ...        0 min, 12.470 sec
 * total energy  : -1283.2826307 Eh     change       -0.3851790E-03 Eh
   gradient norm :     0.0427932 Eh/a0  converged?    E=F G=F D=F
   step length   :     0.8711669 a0

........................................................................
.............................. CYCLE    6 ..............................
........................................................................
   1  -1291.1212839 -0.129112E+04  0.168E-02    5.84       0.0  T
   2  -1291.1212939 -0.996795E-05  0.102E-02    5.83       1.0  T
   3  -1291.1212975 -0.359187E-05  0.186E-03    5.83       2.0  T
   4  -1291.1212978 -0.301196E-06  0.535E-04    5.84       6.8  T
   5  -1291.1212978 -0.785121E-08  0.578E-05    5.84      63.0  T
     SCC iter.                  ...        0 min,  3.151 sec
     gradient                   ...        0 min, 12.461 sec
 * total energy  : -1283.2835688 Eh     change       -0.9380562E-03 Eh
   gradient norm :     0.0094741 Eh/a0  converged?    E=F G=F D=F
   step length   :     0.2538950 a0

........................................................................
.............................. CYCLE    7 ..............................
........................................................................
   1  -1291.1160696 -0.129112E+04  0.170E-02    5.82       0.0  T
   2  -1291.1160713 -0.170192E-05  0.101E-02    5.82       1.0  T
   3  -1291.1160718 -0.523766E-06  0.710E-04    5.82       5.1  T
   4  -1291.1160719 -0.505390E-07  0.216E-04    5.82      16.8  T
     SCC iter.                  ...        0 min,  2.544 sec
     gradient                   ...        0 min, 12.511 sec
 * total energy  : -1283.2836001 Eh     change       -0.3133493E-04 Eh
   gradient norm :     0.0216898 Eh/a0  converged?    E=F G=F D=F
   step length   :     0.3832535 a0

........................................................................
.............................. CYCLE    8 ..............................
........................................................................
   1  -1291.1202119 -0.129112E+04  0.125E-02    5.81       0.0  T
   2  -1291.1202131 -0.121515E-05  0.746E-03    5.82       1.0  T
   3  -1291.1202135 -0.382355E-06  0.573E-04    5.82       6.3  T
   4  -1291.1202135 -0.358473E-07  0.178E-04    5.82      20.4  T
     SCC iter.                  ...        0 min,  2.507 sec
     gradient                   ...        0 min, 12.561 sec
 * total energy  : -1283.2842372 Eh     change       -0.6370650E-03 Eh
   gradient norm :     0.0152567 Eh/a0  converged?    E=F G=F D=F
   step length   :     0.2283356 a0

........................................................................
.............................. CYCLE    9 ..............................
........................................................................
   1  -1291.1183180 -0.129112E+04  0.152E-02    5.83       0.0  T
   2  -1291.1183253 -0.729961E-05  0.916E-03    5.85       1.0  T
   3  -1291.1183267 -0.149832E-05  0.151E-03    5.88       2.4  T
   4  -1291.1183270 -0.251189E-06  0.331E-04    5.87      11.0  T
   5  -1291.1183270 -0.395517E-08  0.477E-05    5.87      76.3  T
     SCC iter.                  ...        0 min,  3.140 sec
     gradient                   ...        0 min, 12.582 sec
 * total energy  : -1283.2845225 Eh     change       -0.2852953E-03 Eh
   gradient norm :     0.0203251 Eh/a0  converged?    E=F G=F D=F
   step length   :     0.2782258 a0

........................................................................
.............................. CYCLE   10 ..............................
........................................................................
   1  -1291.1117029 -0.129111E+04  0.456E-02    5.91       0.0  T
   2  -1291.1119185 -0.215570E-03  0.277E-02    6.03       1.0  T
   3  -1291.1119504 -0.319171E-04  0.816E-03    6.12       1.0  T
   4  -1291.1119540 -0.356272E-05  0.105E-03    6.11       3.5  T
   5  -1291.1119540 -0.669631E-07  0.245E-04    6.11      14.8  T
   6  -1291.1119540 -0.412706E-08  0.942E-05    6.11      38.6  T
     SCC iter.                  ...        0 min,  3.735 sec
     gradient                   ...        0 min, 12.586 sec
 * total energy  : -1283.2821306 Eh     change        0.2391915E-02 Eh
   gradient norm :     0.0416537 Eh/a0  converged?    E=F G=F D=F
   step length   :     0.9151481 a0

........................................................................
.............................. CYCLE   11 ..............................
........................................................................
   1  -1291.1276704 -0.129113E+04  0.434E-02    6.16       0.0  T
   2  -1291.1278237 -0.153289E-03  0.259E-02    6.04       1.0  T
   3  -1291.1278476 -0.239437E-04  0.697E-03    5.93       1.0  T
   4  -1291.1278503 -0.272653E-05  0.950E-04    5.94       3.8  T
   5  -1291.1278504 -0.309556E-07  0.207E-04    5.94      17.6  T
   6  -1291.1278504 -0.171258E-08  0.685E-05    5.94      53.1  T
     SCC iter.                  ...        0 min,  3.735 sec
     gradient                   ...        0 min, 12.647 sec
 * total energy  : -1283.2842331 Eh     change       -0.2102575E-02 Eh
   gradient norm :     0.0362503 Eh/a0  converged?    E=F G=F D=F
   step length   :     0.7464417 a0

........................................................................
.............................. CYCLE   12 ..............................
........................................................................
   1  -1291.1060194 -0.129111E+04  0.362E-02    5.74       0.0  T
   2  -1291.1061142 -0.948575E-04  0.209E-02    5.69       1.0  T
   3  -1291.1061318 -0.176011E-04  0.566E-03    5.65       1.0  T
   4  -1291.1061340 -0.212602E-05  0.123E-03    5.64       3.0  T
   5  -1291.1061340 -0.589121E-07  0.208E-04    5.64      17.5  T
   6  -1291.1061340 -0.335831E-08  0.648E-05    5.64      56.1  T
     SCC iter.                  ...        0 min,  3.722 sec
     gradient                   ...        0 min, 12.626 sec
 * total energy  : -1283.2811742 Eh     change        0.3058951E-02 Eh
   gradient norm :     0.0585344 Eh/a0  converged?    E=F G=F D=F
   step length   :     0.7389696 a0

........................................................................
.............................. CYCLE   13 ..............................
........................................................................
   1  -1291.1217104 -0.129112E+04  0.266E-02    5.79       0.0  T
   2  -1291.1217595 -0.491014E-04  0.155E-02    5.83       1.0  T
   3  -1291.1217689 -0.942427E-05  0.402E-03    5.87       1.0  T
   4  -1291.1217700 -0.112062E-05  0.832E-04    5.87       4.4  T
   5  -1291.1217700 -0.248917E-07  0.133E-04    5.87      27.4  T
   6  -1291.1217700 -0.120872E-08  0.447E-05    5.87      81.3  T
     SCC iter.                  ...        0 min,  3.631 sec
     gradient                   ...        0 min, 12.624 sec
 * total energy  : -1283.2851533 Eh     change       -0.3979092E-02 Eh
   gradient norm :     0.0054642 Eh/a0  converged?    E=F G=F D=F
   step length   :     0.5668592 a0

........................................................................
.............................. CYCLE   14 ..............................
........................................................................
   1  -1291.1211466 -0.129112E+04  0.975E-03    5.87       0.0  T
   2  -1291.1211505 -0.395139E-05  0.584E-03    5.88       1.0  T
   3  -1291.1211511 -0.525483E-06  0.108E-03    5.89       3.4  T
   4  -1291.1211512 -0.114674E-06  0.140E-04    5.89      26.0  T
   5  -1291.1211512 -0.109253E-08  0.345E-05    5.89     105.5  T
     SCC iter.                  ...        0 min,  3.056 sec
     gradient                   ...        0 min, 12.940 sec
 * total energy  : -1283.2853117 Eh     change       -0.1584097E-03 Eh
   gradient norm :     0.0072126 Eh/a0  converged?    E=F G=F D=F
   step length   :     0.2104193 a0

........................................................................
.............................. CYCLE   15 ..............................
........................................................................
   1  -1291.1203088 -0.129112E+04  0.689E-03    5.88       0.0  T
   2  -1291.1203101 -0.134227E-05  0.419E-03    5.90       1.0  T
   3  -1291.1203104 -0.268088E-06  0.597E-04    5.91       6.1  T
   4  -1291.1203104 -0.465602E-07  0.126E-04    5.91      28.8  T
     SCC iter.                  ...        0 min,  2.409 sec
     gradient                   ...        0 min, 12.543 sec
 * total energy  : -1283.2854083 Eh     change       -0.9664397E-04 Eh
   gradient norm :     0.0056886 Eh/a0  converged?    E=F G=F D=F
   step length   :     0.1494980 a0

........................................................................
.............................. CYCLE   16 ..............................
........................................................................
   1  -1291.1202293 -0.129112E+04  0.149E-03    5.91       0.0  T
   2  -1291.1202294 -0.939729E-07  0.880E-04    5.91       4.1  T
   3  -1291.1202295 -0.236014E-07  0.180E-04    5.91      20.3  T
     SCC iter.                  ...        0 min,  1.806 sec
     gradient                   ...        0 min, 12.671 sec
 * total energy  : -1283.2854459 Eh     change       -0.3757680E-04 Eh
   gradient norm :     0.0055471 Eh/a0  converged?    E=F G=F D=F
   step length   :     0.0342766 a0

........................................................................
.............................. CYCLE   17 ..............................
........................................................................
   1  -1291.1198387 -0.129112E+04  0.556E-03    5.93       0.0  T
   2  -1291.1198394 -0.656961E-06  0.336E-03    5.93       1.1  T
   3  -1291.1198396 -0.213917E-06  0.461E-04    5.94       7.9  T
   4  -1291.1198396 -0.213731E-07  0.125E-04    5.94      29.0  T
     SCC iter.                  ...        0 min,  2.410 sec
     gradient                   ...        0 min, 12.826 sec
 * total energy  : -1283.2855242 Eh     change       -0.7826025E-04 Eh
   gradient norm :     0.0055139 Eh/a0  converged?    E=F G=F D=F
   step length   :     0.1095988 a0

........................................................................
.............................. CYCLE   18 ..............................
........................................................................
   1  -1291.1203698 -0.129112E+04  0.415E-03    5.95       0.0  T
   2  -1291.1203700 -0.248299E-06  0.253E-03    5.95       1.4  T
   3  -1291.1203701 -0.695127E-07  0.255E-04    5.96      14.2  T
   4  -1291.1203701 -0.839782E-08  0.665E-05    5.95      54.7  T
     SCC iter.                  ...        0 min,  2.385 sec
     gradient                   ...        0 min, 12.510 sec
 * total energy  : -1283.2855697 Eh     change       -0.4558197E-04 Eh
   gradient norm :     0.0043372 Eh/a0  converged?    E=F G=F D=F
   step length   :     0.0722398 a0

........................................................................
.............................. CYCLE   19 ..............................
........................................................................
   1  -1291.1207690 -0.129112E+04  0.404E-03    5.96       0.0  T
   2  -1291.1207692 -0.169421E-06  0.246E-03    5.96       1.5  T
   3  -1291.1207693 -0.572636E-07  0.208E-04    5.97      17.5  T
   4  -1291.1207693 -0.564614E-08  0.663E-05    5.96      54.9  T
     SCC iter.                  ...        0 min,  2.382 sec
     gradient                   ...        0 min, 12.509 sec
 * total energy  : -1283.2856009 Eh     change       -0.3114280E-04 Eh
   gradient norm :     0.0017874 Eh/a0  converged?    E=F G=F D=F
   step length   :     0.0739309 a0

........................................................................
.............................. CYCLE   20 ..............................
........................................................................
   1  -1291.1210833 -0.129112E+04  0.329E-03    5.96       0.0  T
   2  -1291.1210834 -0.125857E-06  0.200E-03    5.96       1.8  T
   3  -1291.1210834 -0.286420E-07  0.168E-04    5.97      21.6  T
   4  -1291.1210834 -0.481805E-08  0.413E-05    5.97      88.1  T
     SCC iter.                  ...        0 min,  2.379 sec
     gradient                   ...        0 min, 12.403 sec
 * total energy  : -1283.2856141 Eh     change       -0.1317843E-04 Eh
   gradient norm :     0.0020484 Eh/a0  converged?    E=F G=F D=F
   step length   :     0.0707700 a0
 * RMSD in coord.:     0.1053947 a0     energy gain  -0.7866842E-02 Eh
 * calculating model hessian...
Using Lindh-Hessian (1995)
 Shifting diagonal of input Hessian by   1.000008728942902E-002
 Lowest  eigenvalues of input Hessian
    0.010000    0.010000   -0.000000   -0.000000   -0.000000   -0.000000
   -0.000000   -0.000000   -0.000000   -0.000000   -0.000000   -0.000000
   -0.000000   -0.000000   -0.000000   -0.000000   -0.000000   -0.000000
 Highest eigenvalues
    0.288270    0.321112    1.229924    1.250238    1.354164    1.438863
 

........................................................................
.............................. CYCLE   21 ..............................
........................................................................
   1  -1291.1210689 -0.129112E+04  0.434E-03    5.94       0.0  T
   2  -1291.1210695 -0.611062E-06  0.259E-03    5.93       1.4  T
   3  -1291.1210696 -0.814218E-07  0.440E-04    5.93       8.3  T
   4  -1291.1210696 -0.190103E-07  0.576E-05    5.93      63.1  T
     SCC iter.                  ...        0 min,  2.432 sec
     gradient                   ...        0 min, 12.445 sec
 * total energy  : -1283.2857474 Eh     change       -0.1333120E-03 Eh
   gradient norm :     0.0012505 Eh/a0  converged?    E=F G=F D=F
   step length   :     0.1043059 a0

........................................................................
.............................. CYCLE   22 ..............................
........................................................................
   1  -1291.1206959 -0.129112E+04  0.741E-03    5.90       0.0  T
   2  -1291.1206967 -0.834620E-06  0.449E-03    5.89       1.0  T
   3  -1291.1206969 -0.140290E-06  0.488E-04    5.88       7.5  T
   4  -1291.1206969 -0.336995E-07  0.889E-05    5.88      40.9  T
     SCC iter.                  ...        0 min,  2.385 sec
     gradient                   ...        0 min, 12.354 sec
 * total energy  : -1283.2857839 Eh     change       -0.3654315E-04 Eh
   gradient norm :     0.0029793 Eh/a0  converged?    E=F G=F D=F
   step length   :     0.1646111 a0

........................................................................
.............................. CYCLE   23 ..............................
........................................................................
   1  -1291.1210058 -0.129112E+04  0.152E-03    5.89       0.0  T
   2  -1291.1210059 -0.779123E-07  0.920E-04    5.89       4.0  T
   3  -1291.1210059 -0.151147E-07  0.159E-04    5.89      22.9  T
     SCC iter.                  ...        0 min,  1.841 sec
     gradient                   ...        0 min, 12.341 sec
 * total energy  : -1283.2858032 Eh     change       -0.1925938E-04 Eh
   gradient norm :     0.0010129 Eh/a0  converged?    E=F G=F D=F
   step length   :     0.0321272 a0

........................................................................
.............................. CYCLE   24 ..............................
........................................................................
   1  -1291.1211549 -0.129112E+04  0.191E-03    5.90       0.0  T
   2  -1291.1211551 -0.191206E-06  0.113E-03    5.91       3.2  T
   3  -1291.1211551 -0.306436E-07  0.253E-04    5.91      14.4  T
   4  -1291.1211551 -0.486352E-08  0.379E-05    5.91      96.0  T
     SCC iter.                  ...        0 min,  2.384 sec
     gradient                   ...        0 min, 12.282 sec
 * total energy  : -1283.2858105 Eh     change       -0.7301390E-05 Eh
   gradient norm :     0.0005278 Eh/a0  converged?    E=F G=T D=F
   step length   :     0.0429663 a0

........................................................................
.............................. CYCLE   25 ..............................
........................................................................
   1  -1291.1210557 -0.129112E+04  0.107E-03    5.91       0.0  T
   2  -1291.1210557 -0.122609E-07  0.644E-04    5.91       5.6  T
   3  -1291.1210557 -0.252680E-08  0.562E-05    5.91      64.7  T
     SCC iter.                  ...        0 min,  1.744 sec
     gradient                   ...        0 min, 12.319 sec
 * total energy  : -1283.2858129 Eh     change       -0.2403901E-05 Eh
   gradient norm :     0.0002944 Eh/a0  converged?    E=F G=T D=F
   step length   :     0.0227623 a0

........................................................................
.............................. CYCLE   26 ..............................
........................................................................
   1  -1291.1209943 -0.129112E+04  0.110E-03    5.91       0.0  T
   2  -1291.1209943 -0.163407E-07  0.667E-04    5.90       5.5  T
   3  -1291.1209943 -0.461591E-08  0.655E-05    5.90      55.6  T
     SCC iter.                  ...        0 min,  1.735 sec
     gradient                   ...        0 min, 12.329 sec
 * total energy  : -1283.2858134 Eh     change       -0.4718463E-06 Eh
   gradient norm :     0.0003277 Eh/a0  converged?    E=T G=T D=F
   step length   :     0.0226024 a0

   *** GEOMETRY OPTIMIZATION CONVERGED AFTER 26 CYCLES ***

------------------------------------------------------------------------
 total energy gain   :        -0.0080661 Eh       -5.0616 kcal/mol
 total RMSD          :         0.1033503 a0        0.0547 Å
 total power (kW/mol):        -0.8145243 (step)   -0.0482 (real)
------------------------------------------------------------------------

 L-ANCopt (total)              0 d,  0 h,  7 min, 19.769 sec
 setup                          ...        0 min,  0.030 sec (  0.007%)
 model hessian                  ...        0 min, 15.545 sec (  3.535%)
 ANC generation                 ...        0 min,  4.872 sec (  1.108%)
 coordinate transformation      ...        0 min,  0.002 sec (  0.000%)
 Rational function              ...        0 min,  0.000 sec (  0.000%)
 singlepoint calculation        ...        6 min, 59.135 sec ( 95.308%)
 optimization log               ...        0 min,  0.178 sec (  0.041%)
 hessian update                 ...        0 min,  0.001 sec (  0.000%)

================
 final structure:
================
$coord
       10.64715293926300      -13.85567890124400       -0.77874445020600      o
        8.81429933213700      -14.12915892134100       -0.75969262057900      h
       11.26769780734700      -14.54166884004000       -2.33235810586400      h
       -0.17976528035200        5.89175090573600        7.76803160740500      o
       -0.20505786303100        7.06591205430900        9.17547629730000      h
        0.64193071127100        6.80030157682900        6.39878584918800      h
       -2.21970744925800       -3.90924113160100       -4.93481057613900      o
       -3.28520866429500       -5.40656686381400       -5.02153070315200      h
       -3.14048762658500       -2.56829238259400       -5.80941065343600      h
      -10.22049546875800        4.36757650187000       -2.29681968665800      o
       -8.98966066342300        3.94927166900600       -3.58118693290000      h
      -10.60102293719100        6.15843949114500       -2.52532157334200      h
       -5.97304606683200        5.47441311385900        0.45705702716700      o
       -7.63370124048800        4.91904208903500       -0.07536247664900      h
       -5.71944401522500        4.85283354031500        2.17047418647600      h
       -8.25178243052200       -7.83650736144600        5.39000137364200      o
       -8.91458425745700       -6.52521584430900        4.28078750795100      h
       -8.29661633589500       -7.02685713082200        7.03531135672800      h
       -0.10267683120000       -8.39918028771700       -6.48662252814900      o
       -1.20848107891100       -9.38269747475500       -5.39214481004000      h
        1.48717166777000       -8.43604214795600       -5.57424939839600      h
        1.07971166901600      -11.24875720113100        1.02920992863500      o
       -0.32260292364000      -12.41365185004400        0.85474329887100      h
        2.14688334188800      -11.99598442117500        2.31567540676300      h
       -2.77572439790800       -7.96711614781000        0.58613665485200      o
       -2.65001159705900       -8.61998852029300        2.29812486538100      h
       -4.55710361892700       -7.59838262400000        0.30928745898900      h
        3.99040466667100        4.44250939864600       -8.35001090447500      o
        2.80849029756100        4.48838909668900       -9.73650598667100      h
        3.53259001681200        5.83857654654300       -7.21713031999900      h
       -5.01584215599100       -0.67036002718600       -7.48870371829700      o
       -4.80097517399000       -0.25558240805700       -9.27078849042000      h
       -6.72652390070600       -1.33808442619000       -7.31668080484000      h
       -2.01027354123300        8.22299586323900       -6.01558698610700      o
       -2.16089876859000        9.48731585064700       -7.34790561616300      h
       -2.06727503842500        6.55368491457900       -6.84608121029200      h
       -7.67262933823000       -7.49677699189100       -0.48239470343100      o
       -8.50247858761000       -6.20254785513600        0.49970474827300      h
       -8.50906910852500       -9.10664519994700       -0.12397047163400      h
       -5.90713845999400        3.30847464855200       -4.62087310384400      o
       -5.36651272052000        2.04602696911100       -5.87895432789400      h
       -4.42392541905500        3.87698826873200       -3.67405160815100      h
       -1.51750759943800        4.60944311495900       -2.27534987293300      o
       -1.08265737609400        6.12896204855800       -3.16785371332800      h
       -0.38085351702400        3.28416584019500       -2.85083396516300      h
        1.07466478094700        0.80011297178600       -4.42213536330000      o
        2.64765920686000        1.68779796868100       -4.01832333630500      h
        1.49493915044600       -0.99207211719600       -4.28753199239900      h
       -6.51809376162500       -1.09523050612600        5.65639950779400      o
       -6.15192428582400        0.60474447711500        5.03717951674600      h
       -7.01256538140000       -0.81446916332000        7.41239637073600      h
       -8.22068408306100       -2.98340186594600       14.14115309433400      o
      -10.02105926622800       -2.76639967050000       14.32366124424900      h
       -8.01913520112300       -4.77016839933700       13.68831886748100      h
       -2.43640728722900       -8.94562673781600        5.66177702250500      o
       -2.91632608910700       -7.15244942535900        5.64125822999300      h
       -0.58621591336000       -8.88807587725900        5.76173572273300      h
       -7.59656029040300        0.53098119049900       10.34126600734900      o
       -5.87429087618000        1.19835693997900       10.41487837856100      h
       -7.73671981105200       -0.77876532884300       11.62015232797400      h
       -2.67731725830400       -4.14228491375500        4.42769313972400      o
       -1.07058292414200       -3.60017119934400        5.14507074737100      h
       -3.98899438271400       -3.00558509827100        5.04914328348100      h
        8.52084711784500        0.13079631842100        3.02390837788500      o
        7.55348090978100        0.26992599682000        4.58086166873500      h
        8.35593887726800        1.77336083905000        2.18593395018500      h
        2.22454516866400       -6.15206899914800        0.68762679635900      o
        3.54317334516600       -7.16736774346700        1.42119396929500      h
        0.72569881744400       -7.19804661145100        0.65569687593900      h
        0.58197035035100       10.87993149441100       -0.93667083124500      o
        1.37498929621400       12.32995687494200       -0.10688701249200      h
        0.05186139007600       11.51597260018300       -2.57791155613900      h
       -3.94633079792600       -0.76256583871300       15.98153115819800      o
       -4.17100722506500        1.05940085671900       16.07420496772700      h
       -5.56408578497900       -1.44499290200000       15.45298297757500      h
      -11.83119162792400       -0.88390900999800        6.80627105934200      o
      -11.24872378321800        0.25549000688400        5.47610845220400      h
      -12.30148299796600        0.14346780320800        8.25864474335100      h
      -13.43930300916600        0.47171196925600       -1.75138573396000      o
      -12.29855667210600        1.90950641888900       -1.87819554302100      h
      -14.93708295949800        0.88863826442600       -2.70543059295500      h
        8.01580851150000        4.49691621253700        0.80627493535900      o
        6.33234051176000        4.65938344950800        0.09815894942300      h
        8.35992856911500        5.99711546845400        1.81426792186800      h
       -5.97915264140400       -7.36927505331600       -5.26575716481100      o
       -5.06820820418500       -8.95183071472100       -4.97632671063800      h
       -6.88250285565900       -7.12444395059600       -3.68523083531600      h
        2.78870790630700       -3.97906847263200       -3.86580393401600      o
        4.05485317358500       -4.85786985461200       -4.85155940260900      h
        2.74882836537600       -4.76254828712800       -2.20303411412700      h
       -9.02588180546500      -13.18841518152200       -5.07046113943000      o
       -9.51515525119100      -11.52443698827900       -4.47474933994700      h
       -8.34460462964700      -12.87128814473200       -6.76454437006600      h
      -11.24895939406000       -4.14056979338100       -2.08838065282700      o
      -10.45120597037700       -2.66140068773900       -1.34892539373300      h
      -13.01926607768400       -3.68584804607800       -2.38862087762400      h
        2.92489191599000        2.53153254714700        9.97780170070000      o
        1.89320347816900        1.53827773306100       11.13297367880100      h
        1.82708498358400        3.73672430519800        9.10147155076200      h
        7.00839380569800       -4.70221496762700        3.00857296494600      o
        8.73702162239500       -5.24291366280600        3.35938828229300      h
        7.06848452048000       -2.88185391337500        2.78559035719000      h
        2.35126269730500       -3.44313658262600        5.18959854076100      o
        2.80318910491400       -3.22821716318600        3.42604150979600      h
        2.47727164088600       -5.25598458614800        5.52560783337500      h
        3.21721699927200        3.84850991310500        3.21880434507000      o
        2.02538203833600        5.18873963801800        2.81703510823600      h
        4.27401987738500        4.44695368580300        4.59886879814100      h
       -6.87877260617700        7.11883541858900       -7.79415400503000      o
       -5.71966114776000        6.89041563331700       -9.19080424015200      h
       -6.58091058618100        5.69091566179500       -6.64059344216700      h
      -10.53917708878900        9.27627648776900       -3.26094888865800      o
      -10.85494904883100        9.38672373469000       -5.06097444002000      h
       -8.76428908301900        9.70973731958900       -2.96095613311100      h
        3.33967202199900       -4.51342173717000       10.95537187954800      o
        4.15890323027100       -3.51515154846200       12.25438261708400      h
        4.63682069558300       -4.95589108666500        9.71073021183900      h
       -4.11930443080600       -5.22523355406500        9.56640278098900      o
       -3.76790155419800       -5.75444513318700       11.28491027543400      h
       -5.91383134415100       -4.85051916422100        9.46766078893900      h
       -0.56086191761200       -1.79161272746300        9.13491893283500      o
       -1.92546049276600       -3.04930296097800        9.18770589575200      h
        0.91361794987200       -2.67935283386900        9.80506824707500      h
       -0.75723337299100        1.10888003086100        4.84260637617000      o
       -0.38731643551700        0.05045842238200        6.29309535749900      h
        0.80072108427300        1.94946145777300        4.35651249715500      h
       -0.50358406122700       -6.69512510685000      -14.19520672732600      o
       -0.44798080665800       -4.87300356500600      -13.90463122583900      h
        0.21079546596500       -6.97146713522800      -15.83318621420000      h
        6.97930304299200       -6.07200299064200        7.84651550729900      o
        6.51270780834400       -5.91097190570900        6.06710957893400      h
        8.29029588535200       -4.79260056242800        8.09712946697700      h
      -15.46188490903800        2.48897290654600        4.97164195566500      o
      -14.06315924195200        3.57691733541200        5.50662733485600      h
      -16.68902078558700        2.48952875715000        6.33043108787400      h
      -16.15240461391000        8.28331788085500        4.96613540687700      o
      -15.26688405242500        9.88983640736900        5.26281219604900      h
      -17.45776498275800        8.68846680240900        3.75708892876500      h
      -17.91566310540300       -6.19159331260800        2.58847711445500      o
      -19.20766107957900       -6.27951383738600        1.27011609247900      h
      -16.89235427671200       -4.67530057773100        2.31925658389000      h
        6.50679440703900      -12.97546668861000        8.50332841192000      o
        8.05651370298900      -11.99967143864000        8.70370470019800      h
        5.28031346056000      -12.10153623494700        9.54483139203700      h
       12.34811807049300       -7.48764222351500       12.97261938995600      o
       11.36658517204600       -6.07230063986500       13.58016537237400      h
       13.74365960018800       -6.73963857290500       12.06517193482600      h
        4.77676551898700        3.79469738060900       -3.00593999541900      o
        6.31576846197100        3.79359173143600       -3.97316338404300      h
        4.01206829617000        5.42477127796500       -3.37685049845100      h
        8.46964084057600      -10.63095342248800       -4.79176871262400      o
        7.62140368276600       -9.11364675269700       -5.46813772421000      h
        7.22896232256800      -11.40410440180300       -3.70849346814300      h
      -16.27946411340500       10.27474436864500       -5.81120006252700      o
      -14.83001122289300       10.18869328719800       -6.91538211713800      h
      -15.80465079168400       11.34159806583500       -4.39401109204900      h
       12.47901620886000        4.18797633707800        3.25795066345100      o
       12.48047566764300        2.36147788115500        3.44275336434500      h
       14.24873008696600        4.61842949222700        2.94336256040200      h
        0.59421695029000        3.54120054232900      -12.48664689276300      o
        0.53973508309900        1.74196445969700      -12.90695358621400      h
        1.87301325778800        4.29501599331800      -13.54809795643900      h
      -16.18502570518600       -4.04923967046500       -3.05648160939500      o
      -17.38031062729300       -3.23847257703400       -1.92416271874600      h
      -16.40428412645700       -5.87666103849600       -2.92759052892800      h
       -5.00829949533400        3.61383483768700        5.02473570425200      o
       -5.19018596793100        4.61785416591800        6.54026692775900      h
       -3.26645262421100        2.94631034069800        5.00436680045500      h
        6.19059938951300       -9.69484963072700        2.44994929487300      o
        7.72449372956800      -10.27365938702700        3.27866245745300      h
        5.82407313175200      -10.98112787367300        1.20052798338300      h
       -6.16487729272400      -12.24103094698400        3.54382964736600      o
       -6.23646740659300      -10.52299967122500        4.16973568743300      h
       -7.74808081889200      -12.47205615505900        2.64689556576900      h
        5.06622212432200       -0.58259117143500       -7.64680679740500      o
        4.62928054977300        1.17975136535500       -7.90458347246400      h
        3.58561880739200       -1.61661362565000       -7.99589374740000      h
        4.92221857435800       -1.93965210296500      -14.53181360211900      o
        5.74639327566700       -3.53527820091900      -14.09420029122200      h
        5.83992768623500       -0.59999240179000      -13.66799153142000      h
       -2.93483664812100        2.36686975324700       10.30438240694600      o
       -2.21338357094200        3.60179816249100        9.16138599190800      h
       -1.95666591890200        0.79658116922900       10.07733900659300      h
       -2.09544438323000      -10.69635847352900      -10.50440104002200      o
       -2.23405995885000       -9.47201311692800      -11.84202057227500      h
       -1.31296903366600       -9.78764244669200       -9.08116809214400      h
        3.54153244264500       -0.70795175117700        0.70158678757300      o
        3.63473293977100        0.98677572936500        1.38189591158900      h
        4.78003639442100       -0.84229096201100       -0.65484468966000      h
       -3.05824820854900      -10.93953396977000       -3.43326862061300      o
       -2.75549330540000      -10.16582943171100       -1.78023575162700      h
       -3.52965187222900      -12.70841067376900       -3.24151192022100      h
       11.41682311745600       -6.87027572481100        4.27868935713500      o
       11.22037762204700       -8.21856956495100        5.50083226138600      h
       11.37837325360500       -7.66678346892700        2.60225027337700      h
       -7.12541722919100       -4.25644914239100      -13.59972997724800      o
       -7.21702935950000       -5.51957363474000      -14.88667499072100      h
       -6.14243905359800       -4.99485053080300      -12.18680781974600      h
      -13.06987824155600       -7.51542659486200        1.70253587597500      o
      -13.33409090197900       -6.83463447541200        3.40152287137200      h
      -12.36147879313600       -6.16956631545400        0.68183258914000      h
       -1.68411504814100        3.53871246073600       -7.75740169069200      o
       -0.68100095911200        2.37536817549600       -6.73698140392500      h
       -1.11329013363100        3.37001034984000       -9.47283376046800      h
      -18.48184634313300        3.94678682035600        1.26248125968200      o
      -17.15725729730000        3.35998915297300        2.42930440378300      h
      -18.08053429960300        5.68956328452200        0.78969749607200      h
       10.37311108512100       -9.63985457047000        8.83990025024900      o
        8.98778371050900       -8.44298320774400        8.54502644312400      h
       11.04207522466100       -9.16350805550500       10.49804747467800      h
        1.21639628524500        5.49749692702200       14.97470563720000      o
       -0.60046592610600        5.63431595171000       15.11086241517600      h
        1.73462359531500        6.44551741244500       13.48745048662900      h
        7.19145744074500       -1.19733052059000       -2.98257202813300      o
        8.54399154094400        0.04013049691500       -2.92650904122400      h
        6.39722723138200       -1.04468041937400       -4.64067713416100      h
        9.10588482883800        8.51812104926800        3.75705432542600      o
       10.89023710731600        8.91966766561400        3.88636669024700      h
        8.20645207260000       10.11927830610100        3.54378152587300      h
       -9.62296409845700       -2.74166263096800       -6.70159119441400      o
       -9.88428414535400       -3.29349551074800       -4.96256973967500      h
      -11.25233397368600       -2.05640950142100       -7.21319184161500      h
       10.42557599829600      -12.10199005792500        4.14925813308800      o
        9.82828516780900      -13.27213275566700        5.39562537097700      h
       10.88919846801400      -13.04907019077100        2.65983786604900      h
       -7.21260358145400        4.38590419021400      -13.28131533354200      o
       -6.25488945991400        2.81990668268700      -13.37864540966900      h
       -8.88064214569600        4.04578761169700      -14.03989768910300      h
        9.18687373017500       -3.15638985186200       -9.01431574761900      o
        7.89229593671500       -1.85421819826500       -8.85915726707500      h
        9.85071887064800       -3.11790991566800      -10.73170975752100      h
      -17.72441639933700       -9.82208334764800        9.18947927373100      o
      -17.33200971088600      -10.67878849253700        7.62178060315700      h
      -16.09932533722300       -9.55210083044800       10.01095763827800      h
      -19.60918678100400       -1.52120133658000       -0.10618287376900      o
      -21.23126383813200       -2.11456023809500       -0.67439501255200      h
      -19.75590748400600       -1.22953786714100        1.70591054422900      h
      -16.24940493984900       -9.05551032672900       -1.93934480820300      o
      -17.95470450128600       -9.30990236768700       -1.37649288350000      h
      -15.22001981339900       -8.61299897864100       -0.46037507696400      h
      -14.54427174875200       11.56827199056100       -1.17038445529600      o
      -13.91190609116500       12.93547988985800       -0.15170126490300      h
      -13.04212595643300       10.61974655430200       -1.70058763390600      h
      -10.65253236014000       13.93686562211700        1.31987404787600      o
       -9.44267578259100       15.04642659663800        2.21890058333200      h
      -10.10637252118500       14.10828863791300       -0.43617141220300      h
       -5.48960351622100        9.54612660774600       -2.30547324501400      o
       -4.34743476165200        9.08296095414200       -3.66569965081300      h
       -5.56213202585500        8.07333511931300       -1.16574847339400      h
       -1.75187784656500        9.12536865567500       11.56188005225300      o
       -1.88111069549700        9.42128674104400       13.33967397333000      h
       -1.37212023264200       10.78116515683200       10.76272467452600      h
        2.74913213598800        9.26352545402300        5.04808878616600      o
        3.80250107175800        9.91895900987900        6.37361773274200      h
        1.47498069210300       10.54940880736300        4.69123609582200      h
        2.40055360617700        9.46770066688100      -10.27766643657400      o
        3.84680895301500       10.58128219587500      -10.13911825859600      h
        0.94347831877700       10.53218809969300      -10.45936549805600      h
        4.70554504137200        6.45702802516500      -13.69166775061300      o
        6.03146451247700        7.41250508553600      -14.46876828342900      h
        3.91157871145100        7.58140768520600      -12.44807414060100      h
       10.93355372923600        2.45358153088400       -2.72594384894800      o
        9.95486840874500        3.40417623255400       -1.46940753123100      h
       12.49296869616100        1.97815233953900       -1.87000098152400      h
        7.04751943743800       11.71142591784800      -10.31182580842600      o
        8.53775553639600       12.71122034930200      -10.56775287282800      h
        7.67418873498100        9.98717930339600       -9.96481465775800      h
       -2.59640309222700       11.72308813307700       -9.71949992371200      o
       -4.24685504002900       12.35205962176100       -9.20144072782000      h
       -2.94878411082900       10.34014406174600      -10.88897572167000      h
       -9.76995877978600       -3.73831500714900        2.85211338654300      o
       -8.69252810088600       -2.66162039653800        3.90386113095600      h
      -11.46106731948400       -3.01568852845300        2.92057296358500      h
        1.32806429626200      -15.34162901009800       -2.74835772024700      o
        0.61919480251300      -15.26195593911200       -4.42917609895000      h
       -0.08056488368400      -15.52512411342100       -1.61336727092200      h
       15.78974004929800       -5.39277955802600       -1.27841584840600      o
       14.06607634387000       -4.98643583248500       -0.81162172085800      h
       15.81161269250300       -7.17476143854000       -1.72857022087500      h
        2.55537566466900       -8.47891715150400        5.88374489504700      o
        2.90691701151300       -9.02175587307000        7.62058049867800      h
        3.87590329486200       -9.15664154124800        4.79316293882300      h
        6.86248711065200       13.07015403477500       -1.37768676189900      o
        8.70367023386500       13.07326072836200       -1.38782928162900      h
        6.36088743439200       11.49472978959800       -0.57129114883000      h
      -13.13151173011500       -3.76306886410800       12.65720060949000      o
      -14.43690730342400       -2.95099753776300       11.63853694809200      h
      -13.65677735528500       -5.48894413452300       12.86286984497400      h
      -14.65047157109500       -5.12373019260100      -11.36221362724500      o
      -15.07103660709100       -6.18962956212400       -9.91398483997600      h
      -16.14957556226100       -4.14497066219400      -11.69742386341400      h
       -8.30437307850300       14.55712019768200       -3.11676851061200      o
       -6.72377733446100       14.85622588279800       -2.26063780764100      h
       -7.88255186419000       13.77285447904500       -4.71989765773400      h
       -7.23698954505300       12.13159079265800       -7.61394333592500      o
       -8.78518162231700       12.29289094886700       -8.54671383819500      h
       -7.01132523646200       10.30471924341600       -7.35457754722900      h
        5.74774364265000       -0.34928743858000        7.17324998810400      o
        4.76594782946600        0.83820699816200        8.19657594300300      h
        4.49864218825300       -1.57178390526500        6.52477192689600      h
      -11.39804130358900       -8.56848253683500       -4.82432879372000      o
      -10.51196651666400       -8.11529940099800       -6.38559762261900      h
      -11.18960109094600       -7.16723432749200       -3.66703712551800      h
        3.04100647389900       -8.23017956913000      -10.71217609426400      o
        2.95962193897000       -9.88908576929400       -9.87485613346300      h
        1.67699622485700       -8.13145079306700      -11.93685437257800      h
        3.59379941817600       -9.81085378347500       -3.21219573172900      o
        4.71940911349800       -8.49193366604600       -2.60094640366800      h
        2.58441715428200      -10.38273263726400       -1.77421012422200      h
       -9.32188574032800        9.27376489741800        2.82031557232800      o
       -9.78896826613400       10.91311262902700        2.10951126433500      h
      -10.55063671745800        8.03523693686300        2.21638511413000      h
      -14.57877525746300       -1.49004113517700       -7.11555042387900      o
      -15.24185400124700       -2.40624230130400       -5.66115442016500      h
      -15.86731576164100       -1.59971974362600       -8.43094362917300      h
      -18.59481289124200        8.91884458054800        0.46382968043600      o
      -17.12359966790700        9.90863964789400       -0.05485237120700      h
      -19.69898434335600        8.93616313520400       -1.00964766853400      h
       10.78704069048600        9.74639577067200        8.90809626173300      o
       10.92072323875000        7.90207629008900        8.77447419206900      h
       11.96394530879900       10.40206383679400        7.68812277893400      h
      -13.22258954343600        3.29484536504800       -6.67064322567500      o
      -13.84882811574300        1.55101911900000       -6.69466658280100      h
      -11.46258928303200        3.13692340237700       -7.27264903030800      h
        3.57170290480700        7.85898737258700       10.82395922474100      o
        4.49060639623900        6.89418014523100        9.55457237202500      h
        4.24939101143500        9.54238030201800       10.71893825653100      h
        7.11315755064800        2.06730240430200      -12.19171356872000      o
        6.28919545333400        3.66991761418500      -12.54460390815000      h
        7.79431339150900        2.15136000250700      -10.48139228450600      h
       -1.58448553439400      -10.92697606091400       12.42421764646500      o
       -3.08427411809000      -11.02793843824700       11.36770836014400      h
       -1.85080975966400       -9.47317715560900       13.49142854362300      h
       12.42407451030700        6.39729413146000       -6.50187700582600      o
       13.44586215647300        7.83263216412600       -5.87964256041500      h
       12.15627518839300        5.27273564400700       -5.09292627597000      h
      -14.70401384462400       -2.02476528243100        2.39222113493700      o
      -14.99651304101800       -0.68584856480800        3.61036329414500      h
      -14.32237765073300       -1.12237201651500        0.81867642196100      h
       17.96037492748600        7.31238435718100        6.84745510587500      o
       17.30842803694900        5.76431300695000        7.61293176052200      h
       19.76520899575300        7.07322405426100        6.79799886884800      h
      -20.82563983796300       -1.07647841670300        4.85732279709100      o
      -20.36006062165300        0.24567879768700        6.02598804944900      h
      -20.72230628353200       -2.64143793763900        5.79586578852600      h
      -11.25687456222100        5.11567495511800        6.74132390855200      o
      -10.04678412522900        4.38440973030500        5.59046984199600      h
      -11.01577702431900        4.32227876590900        8.35675136097100      h
      -13.05654862247900        6.13249096720400        1.51455768526400      o
      -14.15948775652200        6.77832833973300        2.84491391844800      h
      -13.96799537701200        6.17205930220800       -0.08047639292000      h
      -12.94852487104200        2.13696314463700       10.77558150042200      o
      -13.52467096299600        1.17785062306000       12.19349076413400      h
      -14.19214326254300        3.47367516472600       10.45344075669500      h
       -3.29678713348300       -6.28267291398700       14.60537065330400      o
       -3.09845052563300       -4.65786014879000       15.40297515694500      h
       -4.94077719949600       -6.91942170984400       15.06046224813200      h
        3.00466086146600       -9.72609304337800       10.71052415782200      o
        3.10946198103800       -7.97619369906400       11.25917849134300      h
        1.38067842200900      -10.34613446182500       11.34097167780800      h
       -3.37713010551500        7.21371732753600      -11.86650690980200      o
       -1.93578545249700        6.13488035634800      -12.17546349913100      h
       -4.78400549354700        6.44916035337600      -12.77538836230400      h
        8.26914304839900        7.69374576262000       -3.71639741189900      o
        9.79651678777700        7.55944756242900       -2.68879980575900      h
        6.95159579816400        8.12610944393200       -2.53874981532700      h
        9.80863730614600        1.91476352782100       -7.84416360370400      o
       10.24127023107500        2.05261623808200       -6.07965520003600      h
       11.31917794748000        1.32959614553400       -8.70733474185900      h
        6.77183987176600       13.01270621568300        3.91706826385500      o
        6.48603322656000       12.96326554357200        5.72981633375600      h
        8.38875019610600       13.91108194199400        3.64838569480500      h
        6.37274001645500        5.63084404949700        6.95581210386900      o
        7.66117525307100        4.61866290569600        7.73971469768000      h
        7.29804561424300        6.81360825293200        5.87718425277800      h
       11.44959238176600        4.76047937075000        8.08724127223500      o
       13.21221995990500        4.38953077594500        8.51343835806500      h
       11.50910066619300        4.69295710552600        6.21795851790800      h
       11.45195905734900       -8.72502197581200       -0.39186000585100      o
        9.98234953406700       -7.80683037098000       -1.07878371625400      h
       11.10361398579400      -10.50222604501200       -0.68738031373500      h
       15.86082062917800       -4.48805694541700        3.95381638338000      o
       16.45103882411700       -4.81384327663700        2.26001030278600      h
       14.30178195204400       -5.46344817273500        4.13801863254700      h
       25.11912937075200        1.14416520902700       -3.87352920985300      o
       25.16362545926500        1.47895576521900       -2.08123574886800      h
       23.56641216158800        1.88414437347500       -4.52119711550000      h
       -4.52705201731500        9.41458403465800        4.39095940876200      o
       -3.20824150342400        8.39298415071700        3.57570771937600      h
       -6.10231203472300        9.15194714281600        3.46931740037400      h
       12.87140349625000       11.40793269348000      -10.13863730898000      o
       14.40748535849800       11.09084838131600       -9.22147468714000      h
       12.72080223817600       10.10237427114700      -11.42348787172000      h
      -18.50591146868300       -1.50604607102700      -10.36284705317800      o
      -18.61890147679400        0.33545281726600      -10.35264278022800      h
      -19.88064868017900       -2.03810795384500       -9.28743667027600      h
        6.17740054759700        3.61744856912400       13.68718080232700      o
        5.12015960814300        3.49995731865000       12.16373070452800      h
        5.19054316449700        4.59150129485900       14.85801395868700      h
      -14.64143137310900        5.63033457541200      -10.83340989841500      o
      -16.45051403833900        5.48536240654000      -10.92059440706100      h
      -14.18409579485700        4.65871355432000       -9.30098509013800      h
       -9.21077841629100       -4.49396067264900        9.11028500317600      o
       -9.85329047113600       -3.12439756330400        8.05431440289000      h
      -10.38567476217700       -4.54219338865800       10.51031809303400      h
      -15.49639734934900        6.00686891401900       -3.07748080841600      o
      -14.35434233058300        5.11519406635100       -4.22629551409700      h
      -15.97816146502600        7.53837527145400       -3.97719739790000      h
       -4.22653919142300       -5.84932667136900       -9.93667024902000      o
       -2.61373675675300       -5.17291300007900       -9.43137301232500      h
       -5.07704574380200       -6.42635868876900       -8.42066975156900      h
        7.28400646089700       -6.26750963561800       -1.72607647690700      o
        6.91822734106100       -5.89225006153900        0.05294979720000      h
        7.35945935337400       -4.62367780221700       -2.53647585971500      h
      -21.04139613973600        8.67334632142000       -4.01906406446900      o
      -21.72430221623700        7.26857500150300       -4.97220295463900      h
      -19.72325528651800        9.40449059489100       -5.04671306359600      h
       14.81720024741800       -4.67940166060800        9.31747378052500      o
       13.30140668308400       -4.02506210319800        8.54051541783900      h
       16.26194813907900       -3.81538978300000        8.53754508177500      h
       10.09648282052000       -2.22091285574100        8.59749384979200      o
        8.54272653458300       -1.28704876963200        8.17146002834700      h
       10.12227670799800       -2.37109900244000       10.44703244032100      h
       19.49048063441000       -1.74392887007300       -1.79490592717500      o
       20.79570982301800       -2.31051369818900       -2.97807256627000      h
       18.44103594701000       -3.20722625817300       -1.47267085040700      h
       20.60575533574500       -7.02031969741100        6.48711008556900      o
       19.30342981329200       -8.21265096349800        6.93443578943700      h
       19.95637188113500       -5.38147457092200        6.99747942022300      h
       12.03413822827500        7.09141654839800      -13.08428168096300      o
       13.53069674743800        6.47726352753700      -12.18121302850400      h
       10.62821326676100        6.89214381698900      -11.90661693172500      h
        2.94501154017800       14.95099505296200        1.17910020642200      o
        3.71863646767400       15.71023582929500       -0.27602864699800      h
        4.38271850646000       14.26197801772500        2.13801977828800      h
        0.65676549461000        0.44890797008200       14.08639462927800      o
       -0.94727645061700       -0.19830461989200       14.69436135577700      h
        0.82695166719700        2.16440867186900       14.73949903157200      h
       15.96323665382000      -10.12414847191300        2.07736749553400      o
       14.32596468620000       -9.64732489487500        1.42391475382000      h
       15.84598224156500      -10.01366717950000        3.91504095603000      h
       11.91348123500200       -3.20353956347300       -4.82239163054700      o
       10.87563758937800       -2.89128988876100       -6.32306900413700      h
       12.36777290713500       -4.98394254072800       -5.00862821127300      h
        5.27112550716900       -1.35911130591700       14.63125462156100      o
        3.46463938057400       -1.12223162064800       14.90545160557400      h
        5.86004334237600        0.36881824646100       14.35111069927700      h
        6.32817178311900       11.91953464345800        8.90500417894000      o
        7.98246328631000       11.02564766237300        8.94759321876400      h
        6.49395353534300       13.34426900732700       10.00515536344100      h
       -0.60096136368400       13.04378937031400        4.17474192182800      o
        0.51497170966900       14.26542085935400        3.39728479508000      h
       -2.01085769161700       12.87095347521200        3.01434892175800      h
       -0.80013231653200        6.97826602186200        2.06715048677600      o
       -1.51362963253600        5.81650122493900        0.82973148827300      h
       -0.31221635336300        8.46229578629300        1.09885355958000      h
        4.83308536141600        8.59815023646300        0.28964442217300      o
        4.39303588857900        8.72949871750000        2.06849884139000      h
        3.30608688060400        9.08464346691700       -0.61363927920900      h
       15.05373346919700        0.56777471144500       -0.05692319413000      o
       13.91386991005600       -0.86178640083700        0.27960290470500      h
       16.25884369351000       -0.00797191549800       -1.29424480069300      h
       -1.10405770516300       13.47793335469500        9.31380672895900      o
       -0.60107522968800       13.31982951837300        7.55406498514300      h
       -2.85606397825900       14.00313333815600        9.18849635507800      h
      -16.03234091521600        6.04846050055100        9.71560864879200      o
      -15.96011192109800        6.79440781298900        8.03580745986700      h
      -14.92796414324400        7.14150663068900       10.75346067667400      h
       -8.55819223203200        5.17108758282600       12.37513093325300      o
       -8.88535055361200        3.43681928981600       11.84946929182100      h
       -7.54613514023600        5.89060873855400       11.02542479565400      h
      -13.76736939206300       12.67744450092200        5.43935950913700      o
      -12.81878469607700       13.30122032889300        4.00566600688800      h
      -12.56170020892400       12.44055218510300        6.78088296726900      h
       15.48688179911600        0.24177658730100       -5.52160236647400      o
       15.28833185254400        0.43508020904000       -7.32645685304000      h
       14.21962527206900       -1.04495638342400       -5.07554055629700      h
       -9.77523414951700       -6.94479871489600       -9.39820759021300      o
       -9.44890808459900       -5.29790351384300       -8.59907448082700      h
      -11.17748630109300       -6.70070160119900      -10.52450059399800      h
      -11.07771360129900       -1.44899229834600      -11.80085105792300      o
       -9.71927513419600       -2.42795812786800      -12.55279103300800      h
      -12.47310973623500       -2.62841030735100      -11.58127630106400      h
      -19.29874272091700       -5.48724253249300        7.29166026956600      o
      -19.04530413060500       -5.93714279785900        5.50496643487700      h
      -19.09893562678800       -7.08464359390700        8.22510860047200      h
      -13.65028049447900      -13.63881594345200       -2.47047577290100      o
      -12.42813161264700      -13.88083034104700       -3.80668972793700      h
      -14.49620075473400      -12.04086471591800       -2.78148666743500      h
       -3.77984775233900       13.77526180981400       -0.16034805482800      o
       -2.56406409848400       14.35244291827700       -1.38098150287100      h
       -4.40095591976100       12.13630827636100       -0.79709159913600      h
      -12.79064499653700       -8.65404861369100       10.42028488903700      o
      -12.17261382943800      -10.11194285521600        9.44441483332100      h
      -12.96200879550300       -7.36155871645000        9.10181035122300      h
      -21.83947417733000        5.38816130742300        4.79389068967200      o
      -21.66439221859200        7.18162231895600        4.95019587973200      h
      -20.63223123174300        4.83666424989600        3.49098793417500      h
       17.49210195955900       -5.23521336461100       -6.19803726524500      o
[...]
   382   8 o      384   1 h                                       0.9780364
   385   8 o      386   1 h                                       0.9651329
   385   8 o      387   1 h                                       0.9725889
   388   8 o      389   1 h                                       0.9825559
   388   8 o      390   1 h                                       0.9757326
   391   8 o      392   1 h                                       0.9614842
   391   8 o      393   1 h                                       0.9725933
   394   8 o      395   1 h                                       0.9763269
   394   8 o      396   1 h                                       0.9655853
   397   8 o      398   1 h                                       0.9832539
   397   8 o      399   1 h                                       0.9603534
   400   8 o      401   1 h                                       0.9615019
   400   8 o      402   1 h                                       0.9902162
   403   8 o      404   1 h                                       0.9762709
   403   8 o      405   1 h                                       0.9675121
   406   8 o      407   1 h                                       0.9784985
   406   8 o      408   1 h                                       0.9739016
   409   8 o      410   1 h                                       0.9633341
   409   8 o      411   1 h                                       0.9692160
   412   8 o      413   1 h                                       0.9814132
   412   8 o      414   1 h                                       0.9706651
   415   8 o      416   1 h                                       0.9682956
   415   8 o      417   1 h                                       0.9653867
   418   8 o      419   1 h                                       0.9655788
   418   8 o      420   1 h                                       0.9817774
   421   8 o      422   1 h                                       0.9854306
   421   8 o      423   1 h                                       0.9820501
   424   8 o      425   1 h                                       0.9792675
   424   8 o      426   1 h                                       0.9680341
   427   8 o      428   1 h                                       0.9638882
   427   8 o      429   1 h                                       0.9711504
   430   8 o      431   1 h                                       0.9803934
   430   8 o      432   1 h                                       0.9762179
   433   8 o      434   1 h                                       0.9601822
   433   8 o      435   1 h                                       0.9845076
   436   8 o      437   1 h                                       0.9702084
   436   8 o      438   1 h                                       0.9755324
   439   8 o      440   1 h                                       0.9663856
   439   8 o      441   1 h                                       0.9761848
   442   8 o      443   1 h                                       0.9795716
   442   8 o      444   1 h                                       0.9773174
   445   8 o      446   1 h                                       0.9749921
   445   8 o      447   1 h                                       0.9773383
   448   8 o      449   1 h                                       0.9952934 (max)
   448   8 o      450   1 h                                       0.9565798
   451   8 o      452   1 h                                       0.9674150
   451   8 o      453   1 h                                       0.9706028
   454   8 o      455   1 h                                       0.9743160
   454   8 o      456   1 h                                       0.9725934
   457   8 o      458   1 h                                       0.9721922
   457   8 o      459   1 h                                       0.9735023
   460   8 o      461   1 h                                       0.9837836
   460   8 o      462   1 h                                       0.9634427
   463   8 o      464   1 h                                       0.9721145
   463   8 o      465   1 h                                       0.9701515
   466   8 o      467   1 h                                       0.9733678
   466   8 o      468   1 h                                       0.9888020
   469   8 o      470   1 h                                       0.9744680
   469   8 o      471   1 h                                       0.9705285
   472   8 o      473   1 h                                       0.9677416
   472   8 o      474   1 h                                       0.9626724
   475   8 o      476   1 h                                       0.9662794
   475   8 o      477   1 h                                       0.9844108
   478   8 o      479   1 h                                       0.9839519
   478   8 o      480   1 h                                       0.9604867
   481   8 o      482   1 h                                       0.9713168
   481   8 o      483   1 h                                       0.9737969
   484   8 o      485   1 h                                       0.9841724
   484   8 o      486   1 h                                       0.9847445
   487   8 o      488   1 h                                       0.9667717
   487   8 o      489   1 h                                       0.9708286
   490   8 o      491   1 h                                       0.9614750
   490   8 o      492   1 h                                       0.9867966
   493   8 o      494   1 h                                       0.9842897
   493   8 o      495   1 h                                       0.9812309
   496   8 o      497   1 h                                       0.9571510
   496   8 o      498   1 h                                       0.9842043
   499   8 o      500   1 h                                       0.9710485
   499   8 o      501   1 h                                       0.9690748
   502   8 o      503   1 h                                       0.9720017
   502   8 o      504   1 h                                       0.9781867
   505   8 o      506   1 h                                       0.9739408
   505   8 o      507   1 h                                       0.9669430
   508   8 o      509   1 h                                       0.9738835
   508   8 o      510   1 h                                       0.9716174
   511   8 o      512   1 h                                       0.9751779
   511   8 o      513   1 h                                       0.9742045
   514   8 o      515   1 h                                       0.9654250
   514   8 o      516   1 h                                       0.9741108
   517   8 o      518   1 h                                       0.9737590
   517   8 o      519   1 h                                       0.9609933
   520   8 o      521   1 h                                       0.9792646
   520   8 o      522   1 h                                       0.9672428
   523   8 o      524   1 h                                       0.9715481
   523   8 o      525   1 h                                       0.9738783
   526   8 o      527   1 h                                       0.9663816
   526   8 o      528   1 h                                       0.9663980
   529   8 o      530   1 h                                       0.9770932
   529   8 o      531   1 h                                       0.9850006
   532   8 o      533   1 h                                       0.9719145
   532   8 o      534   1 h                                       0.9717974
   535   8 o      536   1 h                                       0.9700471
   535   8 o      537   1 h                                       0.9738222
   538   8 o      539   1 h                                       0.9731739
   538   8 o      540   1 h                                       0.9792685
   541   8 o      542   1 h                                       0.9726955
   541   8 o      543   1 h                                       0.9728805
   544   8 o      545   1 h                                       0.9567607
   544   8 o      546   1 h                                       0.9914391
   547   8 o      548   1 h                                       0.9768302
   547   8 o      549   1 h                                       0.9678905
   550   8 o      551   1 h                                       0.9664249
   550   8 o      552   1 h                                       0.9719118
   553   8 o      554   1 h                                       0.9686615
   553   8 o      555   1 h                                       0.9741067
   556   8 o      557   1 h                                       0.9709796
   556   8 o      558   1 h                                       0.9810779
   559   8 o      560   1 h                                       0.9740294
   559   8 o      561   1 h                                       0.9751230
   562   8 o      564   1 h                                       0.9835410
   565   8 o      566   1 h                                       0.9712919
   565   8 o      567   1 h                                       0.9729209
   568   8 o      569   1 h                                       0.9574891
   568   8 o      570   1 h                                       0.9740309
   571   8 o      572   1 h                                       0.9729640
   571   8 o      573   1 h                                       0.9796131
   574   8 o      575   1 h                                       0.9701737
   574   8 o      576   1 h                                       0.9689208
   577   8 o      578   1 h                                       0.9611807
   577   8 o      579   1 h                                       0.9780159
   580   8 o      581   1 h                                       0.9708059
   580   8 o      582   1 h                                       0.9732993
   583   8 o      584   1 h                                       0.9629226
   583   8 o      585   1 h                                       0.9744803
   586   8 o      587   1 h                                       0.9809914
   586   8 o      588   1 h                                       0.9607621
   589   8 o      590   1 h                                       0.9693209
   589   8 o      591   1 h                                       0.9820753
   592   8 o      593   1 h                                       0.9649295
   592   8 o      594   1 h                                       0.9725433
   595   8 o      596   1 h                                       0.9665196
   595   8 o      597   1 h                                       0.9715550
   598   8 o      599   1 h                                       0.9621963
   598   8 o      600   1 h                                       0.9719568
   601   8 o      602   1 h                                       0.9684884
   601   8 o      603   1 h                                       0.9718837
   604   8 o      605   1 h                                       0.9635653
   604   8 o      606   1 h                                       0.9671152
   607   8 o      608   1 h                                       0.9695533
   607   8 o      609   1 h                                       0.9767253
   610   8 o      611   1 h                                       0.9690103
   610   8 o      612   1 h                                       0.9587372
   613   8 o      614   1 h                                       0.9769997
   613   8 o      615   1 h                                       0.9672306
   616   8 o      617   1 h                                       0.9749717
   616   8 o      618   1 h                                       0.9786421
   619   8 o      620   1 h                                       0.9781660
   619   8 o      621   1 h                                       0.9701126
   622   8 o      623   1 h                                       0.9710241
   622   8 o      624   1 h                                       0.9741488
   625   8 o      626   1 h                                       0.9833958
   625   8 o      627   1 h                                       0.9721628
   628   8 o      629   1 h                                       0.9678398
   628   8 o      630   1 h                                       0.9821056
   631   8 o      632   1 h                                       0.9669188
   631   8 o      633   1 h                                       0.9670295
   634   8 o      635   1 h                                       0.9566192
   637   8 o      638   1 h                                       0.9731009
   637   8 o      639   1 h                                       0.9708813
   640   8 o      641   1 h                                       0.9750120
   640   8 o      642   1 h                                       0.9788021
   643   8 o      644   1 h                                       0.9595072
   643   8 o      645   1 h                                       0.9790602
   646   8 o      647   1 h                                       0.9563024
   646   8 o      648   1 h                                       0.9810884
   649   8 o      650   1 h                                       0.9636038
   649   8 o      651   1 h                                       0.9897290
   652   8 o      653   1 h                                       0.9644796
   652   8 o      654   1 h                                       0.9680147
   655   8 o      656   1 h                                       0.9752681
   655   8 o      657   1 h                                       0.9850536
   658   8 o      659   1 h                                       0.9584369
   658   8 o      660   1 h                                       0.9859247
   661   8 o      662   1 h                                       0.9712386
   661   8 o      663   1 h                                       0.9700484
   664   8 o      665   1 h                                       0.9604008
   664   8 o      666   1 h                                       0.9873773
   667   8 o      668   1 h                                       0.9653141
   667   8 o      669   1 h                                       0.9800265
   670   8 o      671   1 h                                       0.9769031
   670   8 o      672   1 h                                       0.9645221
   673   8 o      674   1 h                                       0.9740864
   673   8 o      675   1 h                                       0.9636060
   676   8 o      677   1 h                                       0.9627220
   676   8 o      678   1 h                                       0.9653147
   679   8 o      680   1 h                                       0.9651561
   679   8 o      681   1 h                                       0.9684068
   682   8 o      683   1 h                                       0.9764755
   682   8 o      684   1 h                                       0.9692241
   685   8 o      686   1 h                                       0.9738418
   685   8 o      687   1 h                                       0.9690535
   688   8 o      689   1 h                                       0.9590328
   688   8 o      690   1 h                                       0.9630769
   691   8 o      692   1 h                                       0.9576097
   691   8 o      693   1 h                                       0.9809881
   694   8 o      695   1 h                                       0.9813247
   694   8 o      696   1 h                                       0.9746764
   697   8 o      698   1 h                                       0.9891367
   697   8 o      699   1 h                                       0.9728707
   700   8 o      701   1 h                                       0.9612914
   700   8 o      702   1 h                                       0.9818158
   703   8 o      704   1 h                                       0.9634621
   703   8 o      705   1 h                                       0.9813627
   706   8 o      707   1 h                                       0.9582314
   706   8 o      708   1 h                                       0.9701839
   709   8 o      710   1 h                                       0.9756332
   709   8 o      711   1 h                                       0.9716595
   712   8 o      713   1 h                                       0.9938189
   712   8 o      714   1 h                                       0.9761506
   715   8 o      716   1 h                                       0.9855576
   715   8 o      717   1 h                                       0.9731504
   718   8 o      719   1 h                                       0.9676778
   718   8 o      720   1 h                                       0.9883844
   721   8 o      722   1 h                                       0.9860997
   721   8 o      723   1 h                                       0.9816990
   724   8 o      725   1 h                                       0.9713046
   724   8 o      726   1 h                                       0.9685946
   727   8 o      728   1 h                                       0.9817268
   727   8 o      729   1 h                                       0.9680308
   730   8 o      731   1 h                                       0.9571404
   730   8 o      732   1 h                                       0.9795444
   733   8 o      734   1 h                                       0.9789432
   733   8 o      735   1 h                                       0.9787207
   736   8 o      737   1 h                                       0.9751221
   736   8 o      738   1 h                                       0.9593172
   739   8 o      740   1 h                                       0.9772462
   739   8 o      741   1 h                                       0.9633020
   742   8 o      743   1 h                                       0.9732574
   742   8 o      744   1 h                                       0.9721614
   745   8 o      746   1 h                                       0.9711095
   745   8 o      747   1 h                                       0.9761834
   748   8 o      749   1 h                                       0.9706814
   748   8 o      750   1 h                                       0.9869390
   751   8 o      752   1 h                                       0.9589040
   751   8 o      753   1 h                                       0.9848877
   754   8 o      755   1 h                                       0.9604608
   754   8 o      756   1 h                                       0.9622357

 * 1 distinct bonds (by element types)

   Z      Z             #   av. dist./Å        max./Å        min./Å
   1 H    8 O         502     0.9729345     0.9952934     0.9554696


optimized geometry written to: xtbopt.coord


           -------------------------------------------------
          | TOTAL ENERGY            -1283.285813355165 Eh   |
          | GRADIENT NORM               0.006390473583 Eh/α |
          | HOMO-LUMO GAP               5.904190819161 eV   |
           -------------------------------------------------

------------------------------------------------------------------------
 * finished run on 2022/11/24 at 12:12:40.815     
------------------------------------------------------------------------
 total:
 * wall-time:     0 d,  0 h,  7 min, 56.812 sec
 *  cpu-time:     0 d,  0 h, 11 min, 47.663 sec
 * ratio c/w:     1.484 speedup
 SCF:
 * wall-time:     0 d,  0 h,  0 min, 21.038 sec
 *  cpu-time:     0 d,  0 h,  0 min, 33.951 sec
 * ratio c/w:     1.614 speedup
 ANC optimizer:
 * wall-time:     0 d,  0 h,  7 min, 34.733 sec
 *  cpu-time:     0 d,  0 h, 11 min, 11.978 sec
 * ratio c/w:     1.478 speedup

