      -----------------------------------------------------------      
     |                   =====================                   |     
     |                           x T B                           |     
     |                   =====================                   |     
     |                         S. Grimme                         |     
     |          Mulliken Center for Theoretical Chemistry        |     
     |                    University of Bonn                     |     
      -----------------------------------------------------------      

   * xtb version 6.5.1 (579679a) compiled by 'ehlert@majestix' on 2022-07-11

   xtb is free software: you can redistribute it and/or modify it under
   the terms of the GNU Lesser General Public License as published by
   the Free Software Foundation, either version 3 of the License, or
   (at your option) any later version.
   
   xtb is distributed in the hope that it will be useful,
   but WITHOUT ANY WARRANTY; without even the implied warranty of
   MERCHANTABILITY or FITNESS FOR A PARTICULAR PURPOSE.  See the
   GNU Lesser General Public License for more details.
   
   Cite this work as:
   * C. Bannwarth, E. Caldeweyher, S. Ehlert, A. Hansen, P. Pracht,
     J. Seibert, S. Spicher, S. Grimme, WIREs Comput. Mol. Sci., 2020, 11,
     e01493. DOI: 10.1002/wcms.1493
   
   for GFN2-xTB:
   * C. Bannwarth, S. Ehlert and S. Grimme., J. Chem. Theory Comput., 2019,
     15, 1652-1671. DOI: 10.1021/acs.jctc.8b01176
   for GFN1-xTB:
   * S. Grimme, C. Bannwarth, P. Shushkov, J. Chem. Theory Comput., 2017,
     13, 1989-2009. DOI: 10.1021/acs.jctc.7b00118
   for GFN0-xTB:
   * P. Pracht, E. Caldeweyher, S. Ehlert, S. Grimme, ChemRxiv, 2019, preprint.
     DOI: 10.26434/chemrxiv.8326202.v1
   for GFN-FF:
   * S. Spicher and S. Grimme, Angew. Chem. Int. Ed., 2020, 59, 15665-15673.
     DOI: 10.1002/anie.202004239
   
   for ALPB and GBSA implicit solvation:
   * S. Ehlert, M. Stahn, S. Spicher, S. Grimme, J. Chem. Theory Comput.,
     2021, 17, 4250-4261. DOI: 10.1021/acs.jctc.1c00471
   
   for DFT-D4:
   * E. Caldeweyher, C. Bannwarth and S. Grimme, J. Chem. Phys., 2017,
     147, 034112. DOI: 10.1063/1.4993215
   * E. Caldeweyher, S. Ehlert, A. Hansen, H. Neugebauer, S. Spicher,
     C. Bannwarth and S. Grimme, J. Chem. Phys., 2019, 150, 154122.
     DOI: 10.1063/1.5090222
   * E. Caldeweyher, J.-M. Mewes, S. Ehlert and S. Grimme, Phys. Chem. Chem. Phys.
     2020, 22, 8499-8512. DOI: 10.1039/D0CP00502A
   
   for sTDA-xTB:
   * S. Grimme and C. Bannwarth, J. Chem. Phys., 2016, 145, 054103.
     DOI: 10.1063/1.4959605
   
   in the mass-spec context:
   * V. Asgeirsson, C. Bauer and S. Grimme, Chem. Sci., 2017, 8, 4879.
     DOI: 10.1039/c7sc00601b
   * J. Koopman and S. Grimme, ACS Omega 2019, 4, 12, 15120-15133.
     DOI: 10.1021/acsomega.9b02011
   
   for metadynamics refer to:
   * S. Grimme, J. Chem. Theory Comput., 2019, 155, 2847-2862
     DOI: 10.1021/acs.jctc.9b00143
   
   for SPH calculations refer to:
   * S. Spicher and S. Grimme, J. Chem. Theory Comput., 2021, 17, 1701-1714
     DOI: 10.1021/acs.jctc.0c01306
   
   with help from (in alphabetical order)
   P. Atkinson, C. Bannwarth, F. Bohle, G. Brandenburg, E. Caldeweyher
   M. Checinski, S. Dohm, S. Ehlert, S. Ehrlich, I. Gerasimov, C. Hölzer
   A. Katbashev, J. Koopman, C. Lavigne, S. Lehtola, F. März, M. Müller,
   F. Musil, H. Neugebauer, J. Pisarek, C. Plett, P. Pracht, F. Pultar,
   J. Seibert, P. Shushkov, S. Spicher, M. Stahn, M. Steiner, T. Strunk,
   J. Stückrath, T. Rose, and J. Unsleber
   
 * started run on 2022/11/24 at 12:21:16.685     

           -------------------------------------------------
          |                Calculation Setup                |
           -------------------------------------------------

          program call               : xtb xtbopt.coord --gfn2 --sp --gbsa water
          hostname                   : cn0430
          coordinate file            : xtbopt.coord
          omp threads                :                     2

   ID    Z sym.   atoms
    1    8 o      1, 4, 7, 10, 13, 16, 19, 22, 25, 28, 31, 34, 37, 40, 43,
                  46, 49, 52, 55, 58, 61, 64, 67, 70, 73, 76, 79, 82, 85, 88,
                  91, 94, 97, 100, 103, 106, 109, 112, 115, 118, 121, 124,
                  127, 130, 133, 136, 139, 142, 145, 148, 151, 154, 157, 160,
                  163, 166, 169, 172, 175, 178, 181, 184, 187, 190, 193, 196,
                  199, 202, 205, 208, 211, 214, 217, 220, 223, 226, 229, 232,
                  235, 238, 241, 244, 247, 250, 253, 256, 259, 262, 265, 268,
                  271, 274, 277, 280, 283, 286, 289, 292, 295, 298, 301, 304,
                  307, 310, 313, 316, 319, 322, 325, 328, 331, 334, 337, 340,
                  343, 346, 349, 352, 355, 358, 361, 364, 367, 370, 373, 376,
                  379, 382, 385, 388, 391, 394, 397, 400, 403, 406, 409, 412,
                  415, 418, 421, 424, 427, 430, 433, 436, 439, 442, 445, 448,
                  451, 454, 457, 460, 463, 466, 469, 472, 475, 478, 481, 484,
                  487, 490, 493, 496, 499, 502, 505, 508, 511, 514, 517, 520,
                  523, 526, 529, 532, 535, 538, 541, 544, 547, 550, 553, 556,
                  559, 562, 565, 568, 571, 574, 577, 580, 583, 586, 589, 592,
                  595, 598, 601, 604, 607, 610, 613, 616, 619, 622, 625, 628,
                  631, 634, 637, 640, 643, 646, 649, 652, 655, 658, 661, 664,
                  667, 670, 673, 676, 679, 682, 685, 688, 691, 694, 697, 700,
                  703, 706, 709, 712, 715, 718, 721, 724, 727, 730, 733, 736,
                  739, 742, 745, 748, 751, 754
    2    1 h      2, 3, 5, 6, 8, 9, 11, 12, 14, 15, 17, 18, 20, 21, 23, 24,
                  26, 27, 29, 30, 32, 33, 35, 36, 38, 39, 41, 42, 44, 45, 47,
                  48, 50, 51, 53, 54, 56, 57, 59, 60, 62, 63, 65, 66, 68, 69,
                  71, 72, 74, 75, 77, 78, 80, 81, 83, 84, 86, 87, 89, 90, 92,
                  93, 95, 96, 98, 99, 101, 102, 104, 105, 107, 108, 110, 111,
                  113, 114, 116, 117, 119, 120, 122, 123, 125, 126, 128, 129,
                  131, 132, 134, 135, 137, 138, 140, 141, 143, 144, 146, 147,
                  149, 150, 152, 153, 155, 156, 158, 159, 161, 162, 164, 165,
                  167, 168, 170, 171, 173, 174, 176, 177, 179, 180, 182, 183,
                  185, 186, 188, 189, 191, 192, 194, 195, 197, 198, 200, 201,
                  203, 204, 206, 207, 209, 210, 212, 213, 215, 216, 218, 219,
                  221, 222, 224, 225, 227, 228, 230, 231, 233, 234, 236, 237,
                  239, 240, 242, 243, 245, 246, 248, 249, 251, 252, 254, 255,
                  257, 258, 260, 261, 263, 264, 266, 267, 269, 270, 272, 273,
                  275, 276, 278, 279, 281, 282, 284, 285, 287, 288, 290, 291,
                  293, 294, 296, 297, 299, 300, 302, 303, 305, 306, 308, 309,
                  311, 312, 314, 315, 317, 318, 320, 321, 323, 324, 326, 327,
                  329, 330, 332, 333, 335, 336, 338, 339, 341, 342, 344, 345,
                  347, 348, 350, 351, 353, 354, 356, 357, 359, 360, 362, 363,
                  365, 366, 368, 369, 371, 372, 374, 375, 377, 378, 380, 381,
                  383, 384, 386, 387, 389, 390, 392, 393, 395, 396, 398, 399,
                  401, 402, 404, 405, 407, 408, 410, 411, 413, 414, 416, 417,
                  419, 420, 422, 423, 425, 426, 428, 429, 431, 432, 434, 435,
                  437, 438, 440, 441, 443, 444, 446, 447, 449, 450, 452, 453,
                  455, 456, 458, 459, 461, 462, 464, 465, 467, 468, 470, 471,
                  473, 474, 476, 477, 479, 480, 482, 483, 485, 486, 488, 489,
                  491, 492, 494, 495, 497, 498, 500, 501, 503, 504, 506, 507,
                  509, 510, 512, 513, 515, 516, 518, 519, 521, 522, 524, 525,
                  527, 528, 530, 531, 533, 534, 536, 537, 539, 540, 542, 543,
                  545, 546, 548, 549, 551, 552, 554, 555, 557, 558, 560, 561,
                  563, 564, 566, 567, 569, 570, 572, 573, 575, 576, 578, 579,
                  581, 582, 584, 585, 587, 588, 590, 591, 593, 594, 596, 597,
                  599, 600, 602, 603, 605, 606, 608, 609, 611, 612, 614, 615,
                  617, 618, 620, 621, 623, 624, 626, 627, 629, 630, 632, 633,
                  635, 636, 638, 639, 641, 642, 644, 645, 647, 648, 650, 651,
                  653, 654, 656, 657, 659, 660, 662, 663, 665, 666, 668, 669,
                  671, 672, 674, 675, 677, 678, 680, 681, 683, 684, 686, 687,
                  689, 690, 692, 693, 695, 696, 698, 699, 701, 702, 704, 705,
                  707, 708, 710, 711, 713, 714, 716, 717, 719, 720, 722, 723,
                  725, 726, 728, 729, 731, 732, 734, 735, 737, 738, 740, 741,
                  743, 744, 746, 747, 749, 750, 752, 753, 755, 756

molecular fragmentation (1/2 indicates fragments):
111222222222222222222222222222222222222222222222222222222222222222222222
222222222222222222222222222222222222222222222222222222222222222222222222
222222222222222222222222222222222222222222222222222222222222222222222222
222222222222222222222222222222222222222222222222222222222222222222222222
222222222222222222222222222222222222222222222222222222222222222222222222
222222222222222222222222222222222222222222222222222222222222222222222222
222222222222222222222222222222222222222222222222222222222222222222222222
222222222222222222222222222222222222222222222222222222222222222222222222
222222222222222222222222222222222222222222222222222222222222222222222222
222222222222222222222222222222222222222222222222222222222222222222222222
222222222222222222222222222222222222
# atoms in fragment 1/2:     3   753
 fragment masses (1/2) :       18.02     4521.84
CMA distance (Bohr)    :  17.570
constraining FC (au)   :  0.0500

           -------------------------------------------------
          |                 G F N 2 - x T B                 |
           -------------------------------------------------

        Reference                      10.1021/acs.jctc.8b01176
      * Hamiltonian:
        H0-scaling (s, p, d)           1.850000    2.230000    2.230000
        zeta-weighting                 0.500000
      * Dispersion:
        s8                             2.700000
        a1                             0.520000
        a2                             5.000000
        s9                             5.000000
      * Repulsion:
        kExp                           1.500000    1.000000
        rExp                           1.000000
      * Coulomb:
        alpha                          2.000000
        third order                    shell-resolved
        anisotropic                    true
        a3                             3.000000
        a5                             4.000000
        cn-shift                       1.200000
        cn-exp                         4.000000
        max-rad                        5.000000

      * Solvation model:               GBSA
        Solvent                        water
        Parameter file                 internal GFN2-xTB/GBSA
        Dielectric constant                8.0200E+01
        Reference state                gsolv [1 M gas/solution]
        Free energy shift                  1.8574E-03 Eh       1.1656E+00 kcal/mol
        Temperature                        2.9815E+02 K
        Density                            1.0000E+00 kg/L
        Solvent mass                       1.8000E+01 g/mol
        Interaction kernel             Still
        Born radius scaling (c1)           1.5524E+00
        Born radii integrator          GBOBC
        Born offset                        2.4628E-02 a0       4.6540E-02 AA
        H-bond correction              true
        Ion screening                  false
        Surface tension                    1.0000E-05 Eh       1.5569E+01 dyn/cm
        Grid points                               230 per atom

          ...................................................
          :                      SETUP                      :
          :.................................................:
          :  # basis functions                1512          :
          :  # atomic orbitals                1512          :
          :  # shells                         1008          :
          :  # electrons                      2016          :
          :  max. iterations                   250          :
          :  Hamiltonian                  GFN2-xTB          :
          :  restarted?                      false          :
          :  GBSA solvation                   true          :
          :  PC potential                    false          :
          :  electronic temp.          300.0000000     K    :
          :  accuracy                    1.0000000          :
          :  -> integral cutoff          0.2500000E+02      :
          :  -> integral neglect         0.1000000E-07      :
          :  -> SCF convergence          0.1000000E-05 Eh   :
          :  -> wf. convergence          0.1000000E-03 e    :
          :  Broyden damping             0.4000000          :
          ...................................................

 iter      E             dE          RMSdq      gap      omega  full diag
   1  -1291.2394223 -0.129124E+04  0.409E+00    8.25       0.0  T
   2  -1291.3269544 -0.875322E-01  0.242E+00    7.78       1.0  T
   3  -1291.3633796 -0.364252E-01  0.227E-01    6.68       1.0  T
   4  -1291.3690121 -0.563254E-02  0.491E-02    6.93       1.0  T
   5  -1291.3691815 -0.169364E-03  0.314E-02    6.87       1.0  T
   6  -1291.3692310 -0.494930E-04  0.390E-03    6.88       1.0  T
   7  -1291.3692328 -0.182961E-05  0.934E-04    6.88       3.9  T
   8  -1291.3692329 -0.958432E-07  0.478E-04    6.88       7.6  T
   9  -1291.3692330 -0.372781E-07  0.136E-04    6.88      26.8  T

   *** convergence criteria satisfied after 9 iterations ***

         #    Occupation            Energy/Eh            Energy/eV
      -------------------------------------------------------------
         1        2.0000           -0.6617161             -18.0062
       ...           ...                  ...                  ...
      1002        2.0000           -0.3329120              -9.0590
      1003        2.0000           -0.3284802              -8.9384
      1004        2.0000           -0.3249358              -8.8420
      1005        2.0000           -0.3238059              -8.8112
      1006        2.0000           -0.3205637              -8.7230
      1007        2.0000           -0.3120954              -8.4925
      1008        2.0000           -0.3091711              -8.4130 (HOMO)
      1009                         -0.0564274              -1.5355 (LUMO)
      1010                         -0.0520387              -1.4160
      1011                         -0.0350747              -0.9544
      1012                         -0.0320610              -0.8724
      1013                         -0.0313508              -0.8531
       ...                                ...                  ...
      1512                          0.4976831              13.5426
      -------------------------------------------------------------
                  HL-Gap            0.2527437 Eh            6.8775 eV
             Fermi-level           -0.1827992 Eh           -4.9742 eV

 SCC (total)                   0 d,  0 h,  0 min, 21.844 sec
 SCC setup                      ...        0 min,  0.117 sec (  0.536%)
 Dispersion                     ...        0 min,  0.110 sec (  0.504%)
 classical contributions        ...        0 min,  0.023 sec (  0.107%)
 integral evaluation            ...        0 min,  0.620 sec (  2.836%)
 iterations                     ...        0 min,  8.549 sec ( 39.137%)
 molecular gradient             ...        0 min, 12.358 sec ( 56.575%)
 printout                       ...        0 min,  0.067 sec (  0.305%)

         :::::::::::::::::::::::::::::::::::::::::::::::::::::
         ::                     SUMMARY                     ::
         :::::::::::::::::::::::::::::::::::::::::::::::::::::
         :: total energy           -1283.534051963531 Eh    ::
         :: total w/o Gsasa/hb     -1283.308416554319 Eh    ::
         :: gradient norm              0.125971548894 Eh/a0 ::
         :: HOMO-LUMO gap              6.877505715803 eV    ::
         ::.................................................::
         :: SCC energy             -1291.369232954337 Eh    ::
         :: -> isotropic ES            7.349725294926 Eh    ::
         :: -> anisotropic ES         -1.624011226875 Eh    ::
         :: -> anisotropic XC         -0.119993940956 Eh    ::
         :: -> dispersion             -0.805048348638 Eh    ::
         :: -> Gsolv                  -0.265570591478 Eh    ::
         ::    -> Gelec               -0.039935182267 Eh    ::
         ::    -> Gsasa                0.006403496481 Eh    ::
         ::    -> Ghb                 -0.233896348819 Eh    ::
         ::    -> Gshift               0.001857443127 Eh    ::
         :: repulsion energy           7.674920666834 Eh    ::
         :: add. restraining           0.000000000000 Eh    ::
         :: total charge               0.000000000000 e     ::
         :::::::::::::::::::::::::::::::::::::::::::::::::::::

           -------------------------------------------------
          |                Property Printout                |
           -------------------------------------------------

    * Orbital Energies and Occupations

         #    Occupation            Energy/Eh            Energy/eV
      -------------------------------------------------------------
         1        2.0000           -0.6617161             -18.0062
       ...           ...                  ...                  ...
       996        2.0000           -0.3409929              -9.2789
       997        2.0000           -0.3401396              -9.2557
       998        2.0000           -0.3388755              -9.2213
       999        2.0000           -0.3371853              -9.1753
      1000        2.0000           -0.3352757              -9.1233
      1001        2.0000           -0.3329723              -9.0606
      1002        2.0000           -0.3329120              -9.0590
      1003        2.0000           -0.3284802              -8.9384
      1004        2.0000           -0.3249358              -8.8420
      1005        2.0000           -0.3238059              -8.8112
      1006        2.0000           -0.3205637              -8.7230
      1007        2.0000           -0.3120954              -8.4925
      1008        2.0000           -0.3091711              -8.4130 (HOMO)
      1009                         -0.0564274              -1.5355 (LUMO)
      1010                         -0.0520387              -1.4160
      1011                         -0.0350747              -0.9544
      1012                         -0.0320610              -0.8724
      1013                         -0.0313508              -0.8531
      1014                         -0.0248182              -0.6753
      1015                         -0.0193845              -0.5275
      1016                         -0.0117214              -0.3190
      1017                         -0.0082885              -0.2255
      1018                         -0.0065833              -0.1791
      1019                         -0.0034799              -0.0947
       ...                                ...                  ...
      1512                          0.4976831              13.5426
      -------------------------------------------------------------
                  HL-Gap            0.2527437 Eh            6.8775 eV
             Fermi-level           -0.1827992 Eh           -4.9742 eV

     #   Z          covCN         q      C6AA      α(0)
     1   8 o        1.608    -0.662    26.723     6.977
     2   1 h        0.803     0.350     0.588     1.205
     3   1 h        0.806     0.317     0.671     1.287
     4   8 o        1.608    -0.665    26.802     6.987
     5   1 h        0.804     0.333     0.631     1.247
     6   1 h        0.804     0.354     0.578     1.194
     7   8 o        1.607    -0.687    27.370     7.061
     8   1 h        0.804     0.329     0.640     1.257
     9   1 h        0.804     0.334     0.628     1.245
    10   8 o        1.608    -0.684    27.299     7.052
    11   1 h        0.805     0.342     0.607     1.223
    12   1 h        0.804     0.343     0.606     1.223
    13   8 o        1.609    -0.691    27.475     7.074
    14   1 h        0.804     0.334     0.627     1.244
    15   1 h        0.804     0.342     0.608     1.225
    16   8 o        1.608    -0.695    27.567     7.086
    17   1 h        0.804     0.353     0.582     1.198
    18   1 h        0.804     0.336     0.621     1.238
    19   8 o        1.608    -0.688    27.404     7.065
    20   1 h        0.804     0.335     0.624     1.241
    21   1 h        0.804     0.341     0.610     1.227
    22   8 o        1.609    -0.667    26.855     6.994
    23   1 h        0.804     0.321     0.660     1.276
    24   1 h        0.804     0.332     0.632     1.248
    25   8 o        1.608    -0.682    27.245     7.045
    26   1 h        0.804     0.332     0.632     1.248
    27   1 h        0.804     0.339     0.616     1.233
    28   8 o        1.608    -0.680    27.185     7.037
    29   1 h        0.805     0.325     0.651     1.267
    30   1 h        0.803     0.354     0.578     1.195
    31   8 o        1.608    -0.666    26.833     6.991
    32   1 h        0.804     0.336     0.622     1.238
    33   1 h        0.803     0.347     0.595     1.212
    34   8 o        1.606    -0.691    27.475     7.074
    35   1 h        0.804     0.328     0.642     1.258
    36   1 h        0.802     0.364     0.558     1.173
    37   8 o        1.608    -0.675    27.059     7.021
    38   1 h        0.805     0.355     0.578     1.194
    39   1 h        0.803     0.339     0.614     1.231
    40   8 o        1.605    -0.694    27.547     7.084
    41   1 h        0.802     0.343     0.605     1.222
    42   1 h        0.803     0.349     0.592     1.208
    43   8 o        1.609    -0.665    26.788     6.985
    44   1 h        0.805     0.336     0.623     1.240
    45   1 h        0.804     0.357     0.573     1.189
    46   8 o        1.606    -0.706    27.859     7.124
    47   1 h        0.803     0.346     0.599     1.216
    48   1 h        0.803     0.351     0.585     1.201
    49   8 o        1.607    -0.690    27.456     7.072
    50   1 h        0.803     0.351     0.586     1.203
    51   1 h        0.803     0.342     0.606     1.223
    52   8 o        1.608    -0.668    26.880     6.997
    53   1 h        0.805     0.328     0.642     1.259
    54   1 h        0.803     0.348     0.594     1.210
    55   8 o        1.605    -0.706    27.879     7.126
    56   1 h        0.803     0.359     0.567     1.183
    57   1 h        0.803     0.345     0.601     1.218
    58   8 o        1.607    -0.678    27.138     7.031
    59   1 h        0.803     0.346     0.597     1.214
    60   1 h        0.804     0.322     0.659     1.275
    61   8 o        1.607    -0.690    27.436     7.069
    62   1 h        0.804     0.336     0.622     1.239
    63   1 h        0.804     0.333     0.630     1.247
    64   8 o        1.607    -0.713    28.068     7.150
    65   1 h        0.804     0.337     0.620     1.237
    66   1 h        0.804     0.352     0.583     1.200
    67   8 o        1.610    -0.661    26.693     6.973
    68   1 h        0.805     0.338     0.616     1.233
    69   1 h        0.805     0.341     0.611     1.227
    70   8 o        1.607    -0.674    27.038     7.018
    71   1 h        0.803     0.335     0.626     1.243
    72   1 h        0.804     0.337     0.619     1.236
    73   8 o        1.608    -0.688    27.399     7.065
    74   1 h        0.804     0.330     0.636     1.253
    75   1 h        0.804     0.337     0.620     1.237
    76   8 o        1.607    -0.688    27.385     7.063
    77   1 h        0.803     0.362     0.561     1.176
    78   1 h        0.804     0.334     0.627     1.244
    79   8 o        1.609    -0.688    27.404     7.065
    80   1 h        0.804     0.348     0.592     1.209
    81   1 h        0.805     0.330     0.637     1.253
    82   8 o        1.609    -0.676    27.070     7.022
    83   1 h        0.804     0.355     0.576     1.192
    84   1 h        0.804     0.352     0.583     1.199
    85   8 o        1.607    -0.688    27.392     7.064
    86   1 h        0.803     0.330     0.637     1.254
    87   1 h        0.804     0.346     0.597     1.214
    88   8 o        1.608    -0.688    27.392     7.064
    89   1 h        0.804     0.330     0.636     1.253
    90   1 h        0.804     0.339     0.615     1.232
    91   8 o        1.607    -0.693    27.520     7.080
    92   1 h        0.804     0.350     0.587     1.204
    93   1 h        0.803     0.336     0.623     1.240
    94   8 o        1.607    -0.694    27.555     7.085
    95   1 h        0.804     0.362     0.560     1.176
    96   1 h        0.803     0.351     0.586     1.202
    97   8 o        1.608    -0.681    27.199     7.039
    98   1 h        0.804     0.346     0.597     1.214
    99   1 h        0.803     0.358     0.569     1.185
   100   8 o        1.608    -0.689    27.410     7.066
   101   1 h        0.803     0.348     0.593     1.210
   102   1 h        0.804     0.358     0.569     1.185
   103   8 o        1.608    -0.673    27.001     7.013
   104   1 h        0.804     0.357     0.573     1.189
   105   1 h        0.803     0.340     0.613     1.230
   106   8 o        1.608    -0.682    27.225     7.042
   107   1 h        0.804     0.344     0.602     1.218
   108   1 h        0.804     0.342     0.606     1.223
   109   8 o        1.607    -0.688    27.403     7.065
   110   1 h        0.804     0.326     0.647     1.263
   111   1 h        0.802     0.363     0.558     1.174
   112   8 o        1.607    -0.664    26.776     6.984
   113   1 h        0.804     0.331     0.634     1.250
   114   1 h        0.803     0.356     0.576     1.192
   115   8 o        1.607    -0.685    27.325     7.055
   116   1 h        0.804     0.322     0.658     1.274
   117   1 h        0.803     0.352     0.583     1.200
   118   8 o        1.609    -0.666    26.821     6.990
   119   1 h        0.804     0.317     0.672     1.288
   120   1 h        0.804     0.344     0.604     1.220
   121   8 o        1.607    -0.686    27.333     7.056
   122   1 h        0.803     0.344     0.603     1.220
   123   1 h        0.803     0.338     0.618     1.235
   124   8 o        1.609    -0.686    27.338     7.057
   125   1 h        0.804     0.341     0.610     1.227
   126   1 h        0.804     0.343     0.606     1.223
   127   8 o        1.609    -0.656    26.563     6.956
   128   1 h        0.803     0.347     0.596     1.213
   129   1 h        0.806     0.311     0.688     1.303
   130   8 o        1.607    -0.701    27.726     7.107
   131   1 h        0.803     0.365     0.554     1.170
   132   1 h        0.803     0.344     0.602     1.219
   133   8 o        1.608    -0.666    26.817     6.989
   134   1 h        0.803     0.355     0.577     1.193
   135   1 h        0.804     0.320     0.663     1.279
   136   8 o        1.607    -0.662    26.712     6.975
   137   1 h        0.803     0.336     0.623     1.240
   138   1 h        0.805     0.328     0.642     1.258
   139   8 o        1.607    -0.691    27.474     7.074
   140   1 h        0.803     0.334     0.627     1.244
   141   1 h        0.803     0.366     0.552     1.167
   142   8 o        1.608    -0.689    27.426     7.068
   143   1 h        0.804     0.336     0.623     1.240
   144   1 h        0.804     0.333     0.630     1.247
   145   8 o        1.609    -0.675    27.042     7.019
   146   1 h        0.805     0.339     0.614     1.230
   147   1 h        0.805     0.339     0.614     1.231
   148   8 o        1.609    -0.653    26.497     6.947
   149   1 h        0.805     0.335     0.624     1.241
   150   1 h        0.804     0.353     0.582     1.198
   151   8 o        1.607    -0.683    27.257     7.046
   152   1 h        0.802     0.364     0.557     1.173
   153   1 h        0.805     0.329     0.641     1.257
   154   8 o        1.609    -0.667    26.849     6.993
   155   1 h        0.805     0.337     0.619     1.236
   156   1 h        0.804     0.342     0.608     1.225
   157   8 o        1.608    -0.684    27.298     7.052
   158   1 h        0.804     0.354     0.578     1.194
   159   1 h        0.803     0.342     0.606     1.223
   160   8 o        1.608    -0.668    26.882     6.998
   161   1 h        0.803     0.338     0.618     1.235
   162   1 h        0.805     0.329     0.641     1.257
   163   8 o        1.608    -0.677    27.104     7.026
   164   1 h        0.804     0.347     0.594     1.211
   165   1 h        0.803     0.340     0.611     1.228
   166   8 o        1.607    -0.687    27.367     7.060
   167   1 h        0.805     0.336     0.623     1.240
   168   1 h        0.802     0.360     0.565     1.181
   169   8 o        1.608    -0.671    26.960     7.008
   170   1 h        0.804     0.332     0.632     1.249
   171   1 h        0.804     0.333     0.629     1.246
   172   8 o        1.609    -0.684    27.278     7.049
   173   1 h        0.804     0.354     0.579     1.195
   174   1 h        0.804     0.330     0.638     1.255
   175   8 o        1.608    -0.677    27.118     7.028
   176   1 h        0.804     0.344     0.603     1.219
   177   1 h        0.804     0.339     0.614     1.231
   178   8 o        1.611    -0.691    27.464     7.073
   179   1 h        0.803     0.341     0.611     1.228
   180   1 h        0.804     0.346     0.598     1.215
   181   8 o        1.607    -0.700    27.708     7.104
   182   1 h        0.804     0.356     0.574     1.190
   183   1 h        0.803     0.358     0.571     1.187
   184   8 o        1.607    -0.694    27.559     7.085
   185   1 h        0.805     0.322     0.658     1.274
   186   1 h        0.802     0.367     0.551     1.166
   187   8 o        1.608    -0.694    27.539     7.083
   188   1 h        0.805     0.326     0.648     1.265
   189   1 h        0.804     0.334     0.627     1.244
   190   8 o        1.607    -0.689    27.432     7.069
   191   1 h        0.803     0.354     0.580     1.196
   192   1 h        0.804     0.326     0.649     1.266
   193   8 o        1.607    -0.673    26.999     7.013
   194   1 h        0.804     0.333     0.631     1.248
   195   1 h        0.803     0.352     0.583     1.200
   196   8 o        1.607    -0.675    27.064     7.021
   197   1 h        0.806     0.313     0.684     1.299
   198   1 h        0.802     0.368     0.549     1.164
   199   8 o        1.608    -0.688    27.400     7.065
   200   1 h        0.803     0.355     0.577     1.194
   201   1 h        0.804     0.357     0.571     1.187
   202   8 o        1.609    -0.670    26.930     7.004
   203   1 h        0.803     0.353     0.581     1.197
   204   1 h        0.805     0.317     0.672     1.288
   205   8 o        1.605    -0.693    27.534     7.082
   206   1 h        0.802     0.359     0.567     1.183
   207   1 h        0.803     0.340     0.612     1.229
   208   8 o        1.606    -0.699    27.694     7.102
   209   1 h        0.803     0.351     0.586     1.202
   210   1 h        0.803     0.323     0.657     1.273
   211   8 o        1.609    -0.680    27.174     7.036
   212   1 h        0.805     0.325     0.651     1.267
   213   1 h        0.804     0.351     0.586     1.203
   214   8 o        1.608    -0.689    27.428     7.068
   215   1 h        0.804     0.338     0.617     1.234
   216   1 h        0.803     0.344     0.603     1.219
   217   8 o        1.607    -0.668    26.885     6.998
   218   1 h        0.804     0.335     0.624     1.241
   219   1 h        0.803     0.341     0.609     1.226
   220   8 o        1.608    -0.681    27.218     7.041
   221   1 h        0.804     0.352     0.583     1.200
   222   1 h        0.804     0.345     0.599     1.216
   223   8 o        1.610    -0.627    25.852     6.862
   224   1 h        0.806     0.310     0.692     1.307
   225   1 h        0.805     0.336     0.622     1.238
   226   8 o        1.606    -0.689    27.433     7.069
   227   1 h        0.804     0.340     0.612     1.228
   228   1 h        0.802     0.333     0.629     1.246
   229   8 o        1.608    -0.673    27.004     7.013
   230   1 h        0.804     0.356     0.575     1.191
   231   1 h        0.804     0.335     0.624     1.241
   232   8 o        1.608    -0.681    27.208     7.040
   233   1 h        0.804     0.337     0.620     1.237
   234   1 h        0.804     0.336     0.622     1.239
   235   8 o        1.609    -0.648    26.372     6.931
   236   1 h        0.805     0.324     0.653     1.270
   237   1 h        0.804     0.349     0.590     1.207
   238   8 o        1.608    -0.660    26.661     6.969
   239   1 h        0.805     0.312     0.685     1.300
   240   1 h        0.803     0.362     0.562     1.177
   241   8 o        1.608    -0.674    27.035     7.018
   242   1 h        0.805     0.319     0.666     1.282
   243   1 h        0.803     0.363     0.560     1.175
   244   8 o        1.604    -0.691    27.481     7.075
   245   1 h        0.802     0.333     0.631     1.248
   246   1 h        0.803     0.343     0.606     1.223
   247   8 o        1.606    -0.692    27.505     7.078
   248   1 h        0.804     0.338     0.617     1.233
   249   1 h        0.803     0.365     0.555     1.170
   250   8 o        1.606    -0.653    26.482     6.945
   251   1 h        0.806     0.303     0.711     1.324
   252   1 h        0.802     0.344     0.603     1.220
   253   8 o        1.609    -0.647    26.331     6.926
   254   1 h        0.805     0.321     0.662     1.278
   255   1 h        0.803     0.340     0.613     1.230
   256   8 o        1.610    -0.639    26.129     6.899
   257   1 h        0.804     0.335     0.624     1.241
   258   1 h        0.805     0.320     0.665     1.281
   259   8 o        1.608    -0.667    26.843     6.993
   260   1 h        0.806     0.312     0.685     1.300
   261   1 h        0.803     0.358     0.570     1.186
   262   8 o        1.606    -0.711    28.018     7.144
   263   1 h        0.803     0.358     0.570     1.186
   264   1 h        0.804     0.346     0.598     1.214
   265   8 o        1.607    -0.681    27.204     7.039
   266   1 h        0.805     0.308     0.698     1.312
   267   1 h        0.802     0.360     0.566     1.182
   268   8 o        1.607    -0.687    27.373     7.061
   269   1 h        0.804     0.335     0.625     1.242
   270   1 h        0.803     0.346     0.597     1.214
   271   8 o        1.607    -0.703    27.779     7.113
   272   1 h        0.803     0.350     0.589     1.206
   273   1 h        0.804     0.346     0.597     1.213
   274   8 o        1.610    -0.657    26.592     6.960
   275   1 h        0.805     0.332     0.632     1.249
   276   1 h        0.805     0.327     0.644     1.260
   277   8 o        1.608    -0.682    27.239     7.044
   278   1 h        0.804     0.363     0.558     1.173
   279   1 h        0.804     0.336     0.623     1.240
   280   8 o        1.607    -0.679    27.154     7.033
   281   1 h        0.803     0.333     0.631     1.248
   282   1 h        0.804     0.347     0.596     1.212
   283   8 o        1.608    -0.695    27.572     7.087
   284   1 h        0.804     0.326     0.647     1.264
   285   1 h        0.804     0.354     0.580     1.196
   286   8 o        1.609    -0.665    26.797     6.987
   287   1 h        0.804     0.348     0.593     1.209
   288   1 h        0.805     0.315     0.678     1.294
   289   8 o        1.608    -0.675    27.052     7.020
   290   1 h        0.803     0.344     0.603     1.220
   291   1 h        0.805     0.321     0.661     1.277
   292   8 o        1.609    -0.680    27.177     7.036
   293   1 h        0.805     0.325     0.650     1.266
   294   1 h        0.804     0.337     0.620     1.237
   295   8 o        1.608    -0.671    26.957     7.007
   296   1 h        0.805     0.318     0.670     1.286
   297   1 h        0.802     0.369     0.546     1.161
   298   8 o        1.606    -0.710    27.990     7.140
   299   1 h        0.804     0.342     0.606     1.223
   300   1 h        0.802     0.356     0.576     1.192
   301   8 o        1.608    -0.679    27.168     7.035
   302   1 h        0.803     0.343     0.604     1.221
   303   1 h        0.804     0.358     0.569     1.185
   304   8 o        1.606    -0.676    27.083     7.024
   305   1 h        0.802     0.344     0.602     1.219
   306   1 h        0.804     0.331     0.636     1.252
   307   8 o        1.607    -0.699    27.686     7.101
   308   1 h        0.804     0.353     0.581     1.198
   309   1 h        0.803     0.342     0.606     1.223
   310   8 o        1.607    -0.682    27.250     7.045
   311   1 h        0.803     0.326     0.648     1.264
   312   1 h        0.803     0.351     0.587     1.204
   313   8 o        1.607    -0.679    27.146     7.032
   314   1 h        0.804     0.353     0.582     1.199
   315   1 h        0.803     0.324     0.653     1.269
   316   8 o        1.607    -0.683    27.274     7.048
   317   1 h        0.803     0.340     0.611     1.228
   318   1 h        0.804     0.329     0.639     1.256
   319   8 o        1.609    -0.679    27.160     7.034
   320   1 h        0.803     0.354     0.579     1.196
   321   1 h        0.805     0.325     0.650     1.266
   322   8 o        1.605    -0.698    27.665     7.099
   323   1 h        0.803     0.345     0.599     1.216
   324   1 h        0.803     0.352     0.585     1.201
   325   8 o        1.609    -0.676    27.078     7.023
   326   1 h        0.804     0.352     0.584     1.200
   327   1 h        0.805     0.305     0.707     1.321
   328   8 o        1.608    -0.681    27.200     7.039
   329   1 h        0.804     0.335     0.626     1.243
   330   1 h        0.804     0.372     0.540     1.154
   331   8 o        1.609    -0.677    27.109     7.027
   332   1 h        0.804     0.343     0.604     1.221
   333   1 h        0.805     0.331     0.636     1.252
   334   8 o        1.607    -0.676    27.078     7.023
   335   1 h        0.802     0.346     0.598     1.215
   336   1 h        0.805     0.358     0.569     1.185
   337   8 o        1.607    -0.692    27.506     7.078
   338   1 h        0.804     0.333     0.629     1.245
   339   1 h        0.803     0.353     0.581     1.198
   340   8 o        1.608    -0.666    26.832     6.991
   341   1 h        0.803     0.354     0.579     1.195
   342   1 h        0.805     0.325     0.649     1.266
   343   8 o        1.609    -0.648    26.371     6.931
   344   1 h        0.805     0.339     0.615     1.232
   345   1 h        0.805     0.335     0.624     1.241
   346   8 o        1.610    -0.657    26.583     6.959
   347   1 h        0.805     0.347     0.594     1.211
   348   1 h        0.805     0.324     0.654     1.270
   349   8 o        1.607    -0.680    27.181     7.036
   350   1 h        0.803     0.335     0.624     1.241
   351   1 h        0.804     0.345     0.600     1.217
   352   8 o        1.609    -0.643    26.233     6.913
   353   1 h        0.806     0.304     0.708     1.322
   354   1 h        0.803     0.341     0.610     1.227
   355   8 o        1.610    -0.641    26.181     6.906
   356   1 h        0.805     0.338     0.617     1.234
   357   1 h        0.805     0.332     0.631     1.248
   358   8 o        1.607    -0.678    27.139     7.031
   359   1 h        0.804     0.345     0.601     1.218
   360   1 h        0.803     0.330     0.637     1.253
   361   8 o        1.608    -0.670    26.934     7.004
   362   1 h        0.805     0.337     0.620     1.237
   363   1 h        0.804     0.336     0.622     1.239
   364   8 o        1.608    -0.693    27.515     7.080
   365   1 h        0.803     0.342     0.607     1.224
   366   1 h        0.805     0.339     0.614     1.231
   367   8 o        1.609    -0.686    27.341     7.057
   368   1 h        0.805     0.343     0.605     1.222
   369   1 h        0.804     0.326     0.647     1.264
   370   8 o        1.606    -0.666    26.823     6.990
   371   1 h        0.804     0.330     0.636     1.253
   372   1 h        0.802     0.335     0.625     1.242
   373   8 o        1.608    -0.661    26.705     6.975
   374   1 h        0.805     0.324     0.652     1.269
   375   1 h        0.803     0.352     0.583     1.199
   376   8 o        1.604    -0.708    27.932     7.133
   377   1 h        0.803     0.324     0.653     1.270
   378   1 h        0.801     0.364     0.558     1.174
   379   8 o        1.606    -0.693    27.535     7.082
   380   1 h        0.802     0.362     0.561     1.176
   381   1 h        0.804     0.321     0.661     1.277
   382   8 o        1.609    -0.681    27.222     7.042
   383   1 h        0.805     0.330     0.638     1.255
   384   1 h        0.803     0.343     0.606     1.223
   385   8 o        1.609    -0.679    27.161     7.034
   386   1 h        0.805     0.328     0.643     1.259
   387   1 h        0.804     0.345     0.599     1.216
   388   8 o        1.607    -0.697    27.626     7.094
   389   1 h        0.803     0.360     0.565     1.181
   390   1 h        0.804     0.349     0.590     1.207
   391   8 o        1.609    -0.666    26.824     6.990
   392   1 h        0.805     0.324     0.652     1.269
   393   1 h        0.804     0.338     0.617     1.234
   394   8 o        1.608    -0.668    26.885     6.998
   395   1 h        0.803     0.340     0.612     1.229
   396   1 h        0.805     0.332     0.632     1.249
   397   8 o        1.608    -0.674    27.030     7.017
   398   1 h        0.802     0.368     0.549     1.164
   399   1 h        0.805     0.319     0.667     1.282
   400   8 o        1.606    -0.690    27.453     7.072
   401   1 h        0.805     0.315     0.678     1.294
   402   1 h        0.802     0.362     0.562     1.178
   403   8 o        1.608    -0.688    27.383     7.063
   404   1 h        0.803     0.360     0.565     1.181
   405   1 h        0.805     0.325     0.650     1.266
   406   8 o        1.607    -0.678    27.137     7.031
   407   1 h        0.803     0.354     0.580     1.196
   408   1 h        0.804     0.323     0.655     1.271
   409   8 o        1.610    -0.671    26.961     7.008
   410   1 h        0.805     0.341     0.609     1.226
   411   1 h        0.804     0.351     0.586     1.202
   412   8 o        1.607    -0.697    27.639     7.095
   413   1 h        0.803     0.356     0.576     1.192
   414   1 h        0.804     0.348     0.593     1.210
   415   8 o        1.609    -0.668    26.879     6.997
   416   1 h        0.804     0.332     0.633     1.250
   417   1 h        0.805     0.329     0.640     1.256
   418   8 o        1.607    -0.690    27.451     7.071
   419   1 h        0.805     0.353     0.581     1.198
   420   1 h        0.803     0.350     0.589     1.205
   421   8 o        1.605    -0.702    27.756     7.110
   422   1 h        0.803     0.358     0.570     1.186
   423   1 h        0.803     0.333     0.629     1.246
   424   8 o        1.607    -0.685    27.318     7.054
   425   1 h        0.803     0.324     0.652     1.269
   426   1 h        0.804     0.340     0.611     1.228
   427   8 o        1.609    -0.671    26.941     7.005
   428   1 h        0.805     0.330     0.637     1.254
   429   1 h        0.804     0.348     0.593     1.210
   430   8 o        1.606    -0.711    28.007     7.143
   431   1 h        0.803     0.335     0.625     1.241
   432   1 h        0.803     0.352     0.584     1.200
   433   8 o        1.608    -0.669    26.912     7.002
   434   1 h        0.805     0.320     0.665     1.281
   435   1 h        0.802     0.356     0.575     1.192
   436   8 o        1.608    -0.663    26.757     6.981
   437   1 h        0.804     0.329     0.641     1.258
   438   1 h        0.804     0.334     0.627     1.244
   439   8 o        1.608    -0.690    27.438     7.070
   440   1 h        0.805     0.351     0.587     1.203
   441   1 h        0.803     0.336     0.623     1.240
   442   8 o        1.606    -0.687    27.370     7.061
   443   1 h        0.803     0.346     0.599     1.215
   444   1 h        0.803     0.338     0.617     1.234
   445   8 o        1.607    -0.700    27.716     7.105
   446   1 h        0.804     0.338     0.618     1.235
   447   1 h        0.803     0.339     0.615     1.232
   448   8 o        1.606    -0.662    26.717     6.976
   449   1 h        0.801     0.356     0.574     1.191
   450   1 h        0.806     0.308     0.697     1.311
   451   8 o        1.609    -0.655    26.546     6.954
   452   1 h        0.805     0.333     0.629     1.246
   453   1 h        0.804     0.347     0.595     1.211
   454   8 o        1.608    -0.674    27.041     7.018
   455   1 h        0.804     0.355     0.577     1.193
   456   1 h        0.804     0.343     0.605     1.222
   457   8 o        1.608    -0.688    27.397     7.064
   458   1 h        0.804     0.344     0.602     1.218
   459   1 h        0.804     0.340     0.613     1.230
   460   8 o        1.607    -0.681    27.223     7.042
   461   1 h        0.803     0.355     0.577     1.194
   462   1 h        0.805     0.332     0.631     1.248
   463   8 o        1.609    -0.674    27.025     7.016
   464   1 h        0.804     0.350     0.588     1.204
   465   1 h        0.804     0.333     0.629     1.246
   466   8 o        1.605    -0.694    27.549     7.084
   467   1 h        0.804     0.348     0.592     1.208
   468   1 h        0.802     0.336     0.622     1.239
   469   8 o        1.608    -0.694    27.558     7.085
   470   1 h        0.804     0.343     0.605     1.221
   471   1 h        0.804     0.347     0.596     1.213
   472   8 o        1.610    -0.661    26.686     6.972
   473   1 h        0.805     0.342     0.608     1.224
   474   1 h        0.805     0.334     0.626     1.243
   475   8 o        1.607    -0.691    27.471     7.074
   476   1 h        0.805     0.323     0.655     1.271
   477   1 h        0.802     0.358     0.570     1.186
   478   8 o        1.608    -0.676    27.091     7.025
   479   1 h        0.802     0.363     0.559     1.175
   480   1 h        0.805     0.315     0.677     1.292
   481   8 o        1.608    -0.668    26.880     6.997
   482   1 h        0.804     0.331     0.635     1.252
   483   1 h        0.804     0.334     0.627     1.244
   484   8 o        1.604    -0.711    28.005     7.142
   485   1 h        0.803     0.350     0.588     1.205
   486   1 h        0.802     0.329     0.640     1.257
   487   8 o        1.609    -0.677    27.111     7.027
   488   1 h        0.805     0.331     0.634     1.250
   489   1 h        0.804     0.345     0.600     1.217
   490   8 o        1.607    -0.678    27.134     7.030
   491   1 h        0.805     0.314     0.681     1.297
   492   1 h        0.802     0.363     0.559     1.175
   493   8 o        1.605    -0.710    27.977     7.139
   494   1 h        0.802     0.330     0.639     1.255
   495   1 h        0.803     0.357     0.573     1.189
   496   8 o        1.608    -0.679    27.164     7.034
   497   1 h        0.806     0.310     0.693     1.307
   498   1 h        0.802     0.357     0.573     1.189
   499   8 o        1.609    -0.673    27.007     7.014
   500   1 h        0.804     0.326     0.649     1.265
   501   1 h        0.804     0.358     0.570     1.186
   502   8 o        1.607    -0.681    27.223     7.042
   503   1 h        0.804     0.325     0.651     1.267
   504   1 h        0.803     0.333     0.630     1.246
   505   8 o        1.608    -0.693    27.523     7.081
   506   1 h        0.804     0.330     0.638     1.254
   507   1 h        0.805     0.340     0.611     1.228
   508   8 o        1.608    -0.690    27.450     7.071
   509   1 h        0.804     0.360     0.564     1.180
   510   1 h        0.804     0.349     0.590     1.206
   511   8 o        1.607    -0.697    27.623     7.093
   512   1 h        0.804     0.347     0.595     1.212
   513   1 h        0.804     0.325     0.651     1.267
   514   8 o        1.609    -0.673    26.996     7.013
   515   1 h        0.805     0.335     0.623     1.240
   516   1 h        0.804     0.345     0.599     1.216
   517   8 o        1.609    -0.647    26.329     6.925
   518   1 h        0.804     0.354     0.579     1.196
   519   1 h        0.805     0.326     0.646     1.263
   520   8 o        1.608    -0.685    27.311     7.053
   521   1 h        0.803     0.356     0.574     1.190
   522   1 h        0.805     0.312     0.685     1.300
   523   8 o        1.608    -0.686    27.335     7.056
   524   1 h        0.804     0.346     0.597     1.214
   525   1 h        0.804     0.322     0.657     1.273
   526   8 o        1.609    -0.668    26.879     6.997
   527   1 h        0.805     0.334     0.626     1.243
   528   1 h        0.805     0.339     0.614     1.231
   529   8 o        1.605    -0.702    27.777     7.113
   530   1 h        0.803     0.325     0.652     1.268
   531   1 h        0.802     0.366     0.552     1.167
   532   8 o        1.609    -0.688    27.406     7.066
   533   1 h        0.804     0.340     0.613     1.230
   534   1 h        0.804     0.336     0.622     1.239
   535   8 o        1.608    -0.668    26.872     6.996
   536   1 h        0.804     0.338     0.617     1.234
   537   1 h        0.804     0.340     0.613     1.230
   538   8 o        1.607    -0.695    27.576     7.087
   539   1 h        0.804     0.356     0.575     1.192
   540   1 h        0.803     0.334     0.628     1.245
   541   8 o        1.608    -0.691    27.460     7.072
   542   1 h        0.804     0.334     0.627     1.244
   543   1 h        0.804     0.343     0.606     1.222
   544   8 o        1.607    -0.661    26.706     6.975
   545   1 h        0.806     0.309     0.695     1.309
   546   1 h        0.801     0.365     0.555     1.170
   547   8 o        1.608    -0.696    27.600     7.090
   548   1 h        0.803     0.357     0.572     1.189
   549   1 h        0.805     0.314     0.680     1.296
   550   8 o        1.609    -0.664    26.779     6.984
   551   1 h        0.805     0.333     0.631     1.247
   552   1 h        0.804     0.349     0.591     1.207
   553   8 o        1.608    -0.683    27.260     7.047
   554   1 h        0.804     0.332     0.631     1.248
   555   1 h        0.804     0.344     0.603     1.220
   556   8 o        1.607    -0.684    27.276     7.049
   557   1 h        0.804     0.333     0.629     1.246
   558   1 h        0.803     0.366     0.552     1.167
   559   8 o        1.607    -0.695    27.570     7.087
   560   1 h        0.804     0.331     0.636     1.253
   561   1 h        0.804     0.361     0.564     1.180
   562   8 o        1.601    -0.721    28.287     7.178
   563   1 h        0.803     0.343     0.605     1.222
   564   1 h        0.803     0.359     0.568     1.184
   565   8 o        1.609    -0.661    26.690     6.973
   566   1 h        0.804     0.334     0.626     1.243
   567   1 h        0.804     0.327     0.646     1.263
   568   8 o        1.609    -0.661    26.696     6.973
   569   1 h        0.806     0.311     0.689     1.304
   570   1 h        0.804     0.358     0.570     1.186
   571   8 o        1.607    -0.697    27.644     7.096
   572   1 h        0.804     0.355     0.578     1.194
   573   1 h        0.803     0.355     0.576     1.192
   574   8 o        1.609    -0.683    27.259     7.047
   575   1 h        0.804     0.333     0.628     1.245
   576   1 h        0.804     0.347     0.595     1.211
   577   8 o        1.608    -0.669    26.902     7.000
   578   1 h        0.805     0.320     0.664     1.280
   579   1 h        0.803     0.341     0.611     1.228
   580   8 o        1.610    -0.678    27.122     7.029
   581   1 h        0.804     0.342     0.608     1.225
   582   1 h        0.804     0.347     0.595     1.212
   583   8 o        1.609    -0.693    27.517     7.080
   584   1 h        0.805     0.324     0.654     1.270
   585   1 h        0.804     0.345     0.599     1.216
   586   8 o        1.608    -0.668    26.887     6.998
   587   1 h        0.803     0.366     0.552     1.168
   588   1 h        0.805     0.323     0.656     1.273
   589   8 o        1.607    -0.707    27.897     7.129
   590   1 h        0.804     0.320     0.663     1.279
   591   1 h        0.803     0.358     0.570     1.186
   592   8 o        1.609    -0.665    26.791     6.986
   593   1 h        0.805     0.324     0.653     1.270
   594   1 h        0.804     0.358     0.570     1.186
   595   8 o        1.609    -0.676    27.086     7.024
   596   1 h        0.805     0.320     0.664     1.280
   597   1 h        0.804     0.357     0.572     1.188
   598   8 o        1.609    -0.664    26.768     6.983
   599   1 h        0.805     0.322     0.659     1.275
   600   1 h        0.804     0.329     0.639     1.256
   601   8 o        1.608    -0.663    26.756     6.981
   602   1 h        0.804     0.336     0.622     1.239
   603   1 h        0.804     0.335     0.625     1.242
   604   8 o        1.610    -0.649    26.393     6.934
   605   1 h        0.805     0.335     0.624     1.241
   606   1 h        0.805     0.335     0.625     1.241
   607   8 o        1.608    -0.698    27.666     7.099
   608   1 h        0.804     0.331     0.634     1.251
   609   1 h        0.803     0.341     0.611     1.228
   610   8 o        1.610    -0.657    26.579     6.958
   611   1 h        0.804     0.359     0.567     1.183
   612   1 h        0.805     0.313     0.684     1.299
   613   8 o        1.608    -0.689    27.427     7.068
   614   1 h        0.803     0.341     0.610     1.227
   615   1 h        0.805     0.340     0.613     1.229
   616   8 o        1.607    -0.690    27.439     7.070
   617   1 h        0.804     0.349     0.592     1.208
   618   1 h        0.803     0.325     0.651     1.268
   619   8 o        1.608    -0.671    26.943     7.006
   620   1 h        0.803     0.348     0.593     1.210
   621   1 h        0.804     0.336     0.623     1.240
   622   8 o        1.608    -0.693    27.532     7.082
   623   1 h        0.804     0.331     0.636     1.252
   624   1 h        0.804     0.339     0.615     1.232
   625   8 o        1.606    -0.701    27.729     7.107
   626   1 h        0.803     0.349     0.590     1.207
   627   1 h        0.804     0.325     0.651     1.268
   628   8 o        1.607    -0.689    27.409     7.066
   629   1 h        0.805     0.335     0.625     1.241
   630   1 h        0.803     0.351     0.586     1.202
   631   8 o        1.609    -0.668    26.881     6.998
   632   1 h        0.805     0.324     0.654     1.271
   633   1 h        0.805     0.354     0.579     1.195
   634   8 o        1.605    -0.676    27.090     7.025
   635   1 h        0.806     0.306     0.702     1.316
   636   1 h        0.801     0.346     0.598     1.215
   637   8 o        1.609    -0.686    27.347     7.058
   638   1 h        0.804     0.341     0.610     1.227
   639   1 h        0.804     0.341     0.610     1.227
   640   8 o        1.607    -0.702    27.756     7.110
   641   1 h        0.804     0.346     0.597     1.214
   642   1 h        0.803     0.344     0.604     1.220
   643   8 o        1.608    -0.652    26.456     6.942
   644   1 h        0.805     0.315     0.676     1.292
   645   1 h        0.803     0.369     0.546     1.161
   646   8 o        1.608    -0.661    26.683     6.972
   647   1 h        0.806     0.315     0.679     1.294
   648   1 h        0.803     0.351     0.587     1.203
   649   8 o        1.606    -0.687    27.381     7.062
   650   1 h        0.805     0.314     0.680     1.295
   651   1 h        0.802     0.344     0.603     1.220
   652   8 o        1.610    -0.659    26.643     6.966
   653   1 h        0.805     0.330     0.636     1.253
   654   1 h        0.804     0.345     0.599     1.216
   655   8 o        1.606    -0.694    27.564     7.086
   656   1 h        0.804     0.337     0.621     1.237
   657   1 h        0.802     0.341     0.609     1.226
   658   8 o        1.608    -0.668    26.869     6.996
   659   1 h        0.806     0.316     0.675     1.290
   660   1 h        0.802     0.368     0.549     1.164
   661   8 o        1.608    -0.671    26.944     7.006
   662   1 h        0.804     0.346     0.597     1.213
   663   1 h        0.804     0.339     0.614     1.231
   664   8 o        1.607    -0.671    26.950     7.006
   665   1 h        0.805     0.313     0.682     1.297
   666   1 h        0.802     0.354     0.580     1.196
   667   8 o        1.608    -0.695    27.571     7.087
   668   1 h        0.805     0.322     0.658     1.274
   669   1 h        0.803     0.356     0.574     1.190
   670   8 o        1.608    -0.670    26.927     7.003
   671   1 h        0.803     0.363     0.558     1.173
   672   1 h        0.805     0.323     0.655     1.271
   673   8 o        1.609    -0.666    26.820     6.990
   674   1 h        0.804     0.363     0.558     1.174
   675   1 h        0.805     0.319     0.666     1.282
   676   8 o        1.610    -0.671    26.944     7.006
   677   1 h        0.805     0.334     0.626     1.243
   678   1 h        0.805     0.328     0.642     1.258
   679   8 o        1.609    -0.667    26.841     6.992
   680   1 h        0.805     0.334     0.628     1.245
   681   1 h        0.804     0.341     0.610     1.227
   682   8 o        1.608    -0.696    27.601     7.091
   683   1 h        0.803     0.350     0.588     1.205
   684   1 h        0.804     0.359     0.567     1.182
   685   8 o        1.608    -0.662    26.709     6.975
   686   1 h        0.804     0.340     0.612     1.229
   687   1 h        0.804     0.331     0.634     1.250
   688   8 o        1.611    -0.633    25.988     6.880
   689   1 h        0.805     0.320     0.665     1.280
   690   1 h        0.805     0.330     0.637     1.254
   691   8 o        1.608    -0.675    27.054     7.020
   692   1 h        0.806     0.311     0.689     1.304
   693   1 h        0.803     0.359     0.568     1.184
   694   8 o        1.606    -0.690    27.456     7.072
   695   1 h        0.803     0.338     0.617     1.234
   696   1 h        0.804     0.338     0.618     1.235
   697   8 o        1.606    -0.682    27.247     7.045
   698   1 h        0.802     0.348     0.593     1.210
   699   1 h        0.804     0.326     0.648     1.264
   700   8 o        1.608    -0.666    26.829     6.991
   701   1 h        0.805     0.326     0.649     1.265
   702   1 h        0.803     0.345     0.600     1.216
   703   8 o        1.608    -0.670    26.938     7.005
   704   1 h        0.805     0.328     0.641     1.258
   705   1 h        0.803     0.352     0.584     1.201
   706   8 o        1.610    -0.667    26.836     6.992
   707   1 h        0.806     0.320     0.664     1.280
   708   1 h        0.804     0.347     0.595     1.212
   709   8 o        1.608    -0.683    27.267     7.048
   710   1 h        0.804     0.343     0.605     1.222
   711   1 h        0.804     0.327     0.646     1.263
   712   8 o        1.604    -0.713    28.072     7.151
   713   1 h        0.802     0.362     0.561     1.177
   714   1 h        0.804     0.331     0.635     1.251
   715   8 o        1.606    -0.708    27.915     7.131
   716   1 h        0.802     0.361     0.565     1.180
   717   1 h        0.804     0.340     0.611     1.228
   718   8 o        1.606    -0.704    27.828     7.120
   719   1 h        0.805     0.332     0.632     1.248
   720   1 h        0.802     0.363     0.560     1.175
   721   8 o        1.605    -0.690    27.446     7.071
   722   1 h        0.802     0.341     0.609     1.226
   723   1 h        0.803     0.329     0.640     1.257
   724   8 o        1.609    -0.668    26.877     6.997
   725   1 h        0.804     0.360     0.564     1.180
   726   1 h        0.804     0.322     0.658     1.274
   727   8 o        1.607    -0.670    26.924     7.003
   728   1 h        0.803     0.337     0.621     1.238
   729   1 h        0.804     0.332     0.632     1.249
   730   8 o        1.609    -0.662    26.720     6.977
   731   1 h        0.806     0.316     0.676     1.291
   732   1 h        0.803     0.356     0.573     1.190
   733   8 o        1.606    -0.697    27.634     7.095
   734   1 h        0.803     0.330     0.639     1.255
   735   1 h        0.803     0.343     0.606     1.223
   736   8 o        1.609    -0.688    27.384     7.063
   737   1 h        0.804     0.350     0.587     1.204
   738   1 h        0.805     0.303     0.712     1.325
   739   8 o        1.608    -0.675    27.064     7.021
   740   1 h        0.803     0.348     0.593     1.210
   741   1 h        0.805     0.321     0.660     1.276
   742   8 o        1.608    -0.668    26.863     6.995
   743   1 h        0.804     0.338     0.618     1.235
   744   1 h        0.804     0.329     0.640     1.257
   745   8 o        1.608    -0.666    26.829     6.991
   746   1 h        0.804     0.344     0.601     1.218
   747   1 h        0.803     0.331     0.634     1.251
   748   8 o        1.607    -0.695    27.590     7.089
   749   1 h        0.804     0.335     0.625     1.242
   750   1 h        0.802     0.374     0.536     1.151
   751   8 o        1.608    -0.659    26.634     6.965
   752   1 h        0.805     0.311     0.689     1.304
   753   1 h        0.802     0.347     0.597     1.214
   754   8 o        1.610    -0.640    26.165     6.904
   755   1 h        0.805     0.320     0.663     1.279
   756   1 h        0.805     0.333     0.629     1.246

 Mol. C6AA /au·bohr⁶  :    2899354.312460
 Mol. C8AA /au·bohr⁸  :   52605609.845380
 Mol. α(0) /au        :       2393.077866


Wiberg/Mayer (AO) data.
largest (>0.10) Wiberg bond orders for each atom

 ---------------------------------------------------------------------------
     #   Z sym  total        # sym  WBO       # sym  WBO       # sym  WBO
 ---------------------------------------------------------------------------
     1   8 o    1.832 --     3 h    0.890     2 h    0.815
     2   1 h    0.877 --     1 o    0.815
     3   1 h    0.899 --     1 o    0.890
     4   8 o    1.865 --     5 h    0.850     6 h    0.818
     5   1 h    0.889 --     4 o    0.850
     6   1 h    0.874 --     4 o    0.818
     7   8 o    1.833 --     8 h    0.833     9 h    0.824
     8   1 h    0.892 --     7 o    0.833
     9   1 h    0.889 --     7 o    0.824
    10   8 o    1.853 --    11 h    0.832    12 h    0.810
    11   1 h    0.883 --    10 o    0.832
    12   1 h    0.883 --    10 o    0.810
    13   8 o    1.821 --    14 h    0.837    15 h    0.809
    14   1 h    0.888 --    13 o    0.837
    15   1 h    0.883 --    13 o    0.809
    16   8 o    1.837 --    18 h    0.837    17 h    0.802
    17   1 h    0.876 --    16 o    0.802
    18   1 h    0.887 --    16 o    0.837
    19   8 o    1.828 --    21 h    0.826    20 h    0.818
    20   1 h    0.888 --    19 o    0.818
    21   1 h    0.884 --    19 o    0.826
    22   8 o    1.836 --    23 h    0.840    24 h    0.837
    23   1 h    0.897 --    22 o    0.840
    24   1 h    0.890 --    22 o    0.837
    25   8 o    1.844 --    26 h    0.834    27 h    0.818
    26   1 h    0.890 --    25 o    0.834
    27   1 h    0.885 --    25 o    0.818
    28   8 o    1.851 --    29 h    0.857    30 h    0.794
    29   1 h    0.894 --    28 o    0.857
    30   1 h    0.874 --    28 o    0.794
    31   8 o    1.888 --    32 h    0.828    33 h    0.822
    32   1 h    0.887 --    31 o    0.828
    33   1 h    0.879 --    31 o    0.822
    34   8 o    1.867 --    35 h    0.825    36 h    0.787
    35   1 h    0.892 --    34 o    0.825
    36   1 h    0.868 --    34 o    0.787
    37   8 o    1.866 --    38 h    0.831    39 h    0.824
    38   1 h    0.874 --    37 o    0.831
    39   1 h    0.885 --    37 o    0.824
    40   8 o    1.863 --    42 h    0.814    41 h    0.803
    41   1 h    0.882 --    40 o    0.803
    42   1 h    0.878 --    40 o    0.814
    43   8 o    1.871 --    44 h    0.862    45 h    0.815
    44   1 h    0.887 --    43 o    0.862
    45   1 h    0.873 --    43 o    0.815
    46   8 o    1.827 --    48 h    0.810    47 h    0.807
    47   1 h    0.881 --    46 o    0.807
    48   1 h    0.876 --    46 o    0.810
    49   8 o    1.862 --    51 h    0.814    50 h    0.808
    50   1 h    0.877 --    49 o    0.808
    51   1 h    0.883 --    49 o    0.814
    52   8 o    1.847 --    53 h    0.863    54 h    0.812
    53   1 h    0.892 --    52 o    0.863
    54   1 h    0.879 --    52 o    0.812
    55   8 o    1.848 --    57 h    0.809    56 h    0.789
    56   1 h    0.871 --    55 o    0.789
    57   1 h    0.881 --    55 o    0.809
    58   8 o    1.858 --    60 h    0.846    59 h    0.810
    59   1 h    0.880 --    58 o    0.810
    60   1 h    0.896 --    58 o    0.846
    61   8 o    1.829 --    62 h    0.832    63 h    0.826
    62   1 h    0.887 --    61 o    0.832
    63   1 h    0.889 --    61 o    0.826
    64   8 o    1.811 --    65 h    0.818    66 h    0.788
    65   1 h    0.886 --    64 o    0.818
    66   1 h    0.876 --    64 o    0.788
    67   8 o    1.846 --    68 h    0.854    69 h    0.846
    68   1 h    0.885 --    67 o    0.854
    69   1 h    0.884 --    67 o    0.846
    70   8 o    1.851 --    71 h    0.827    72 h    0.823
    71   1 h    0.888 --    70 o    0.827
    72   1 h    0.886 --    70 o    0.823
    73   8 o    1.800 --    74 h    0.847    75 h    0.835
    74   1 h    0.891 --    73 o    0.847
    75   1 h    0.886 --    73 o    0.835
    76   8 o    1.855 --    78 h    0.828    77 h    0.799
    77   1 h    0.869 --    76 o    0.799
    78   1 h    0.888 --    76 o    0.828
    79   8 o    1.826 --    81 h    0.842    80 h    0.812
    80   1 h    0.879 --    79 o    0.812
    81   1 h    0.891 --    79 o    0.842
    82   8 o    1.889 --    83 h    0.819    84 h    0.809
    83   1 h    0.874 --    82 o    0.819
    84   1 h    0.876 --    82 o    0.809
    85   8 o    1.834 --    86 h    0.827    87 h    0.819
    86   1 h    0.891 --    85 o    0.827
    87   1 h    0.880 --    85 o    0.819
    88   8 o    1.813 --    89 h    0.839    90 h    0.819
    89   1 h    0.891 --    88 o    0.839
    90   1 h    0.885 --    88 o    0.819
    91   8 o    1.830 --    92 h    0.830    93 h    0.826
    92   1 h    0.877 --    91 o    0.830
    93   1 h    0.887 --    91 o    0.826
    94   8 o    1.867 --    95 h    0.810    96 h    0.808
    95   1 h    0.869 --    94 o    0.810
    96   1 h    0.877 --    94 o    0.808
    97   8 o    1.886 --    98 h    0.829    99 h    0.792
    98   1 h    0.880 --    97 o    0.829
    99   1 h    0.871 --    97 o    0.792
   100   8 o    1.872 --   101 h    0.815   102 h    0.813
   101   1 h    0.879 --   100 o    0.815
   102   1 h    0.872 --   100 o    0.813
   103   8 o    1.883 --   104 h    0.832   105 h    0.818
   104   1 h    0.873 --   103 o    0.832
   105   1 h    0.884 --   103 o    0.818
   106   8 o    1.849 --   108 h    0.830   107 h    0.827
   107   1 h    0.881 --   106 o    0.827
   108   1 h    0.883 --   106 o    0.830
   109   8 o    1.850 --   110 h    0.854   111 h    0.774
   110   1 h    0.893 --   109 o    0.854
   111   1 h    0.868 --   109 o    0.774
   112   8 o    1.884 --   113 h    0.850   114 h    0.809
   113   1 h    0.890 --   112 o    0.850
   114   1 h    0.874 --   112 o    0.809
   115   8 o    1.847 --   116 h    0.849   117 h    0.800
   116   1 h    0.896 --   115 o    0.849
   117   1 h    0.876 --   115 o    0.800
   118   8 o    1.849 --   119 h    0.854   120 h    0.825
   119   1 h    0.899 --   118 o    0.854
   120   1 h    0.882 --   118 o    0.825
   121   8 o    1.860 --   123 h    0.817   122 h    0.802
   122   1 h    0.882 --   121 o    0.802
   123   1 h    0.886 --   121 o    0.817
   124   8 o    1.847 --   125 h    0.830   126 h    0.818
   125   1 h    0.884 --   124 o    0.830
   126   1 h    0.883 --   124 o    0.818
   127   8 o    1.829 --   129 h    0.900   128 h    0.827
   128   1 h    0.880 --   127 o    0.827
   129   1 h    0.903 --   127 o    0.900
   130   8 o    1.876 --   132 h    0.805   131 h    0.799
   131   1 h    0.867 --   130 o    0.799
   132   1 h    0.881 --   130 o    0.805
   133   8 o    1.868 --   135 h    0.850   134 h    0.810
   134   1 h    0.874 --   133 o    0.810
   135   1 h    0.897 --   133 o    0.850
   136   8 o    1.862 --   138 h    0.855   137 h    0.820
   137   1 h    0.887 --   136 o    0.820
   138   1 h    0.892 --   136 o    0.855
   139   8 o    1.861 --   140 h    0.819   141 h    0.807
   140   1 h    0.888 --   139 o    0.819
   141   1 h    0.866 --   139 o    0.807
   142   8 o    1.807 --   144 h    0.854   143 h    0.822
   143   1 h    0.887 --   142 o    0.822
   144   1 h    0.889 --   142 o    0.854
   145   8 o    1.824 --   147 h    0.856   146 h    0.855
   146   1 h    0.885 --   145 o    0.855
   147   1 h    0.885 --   145 o    0.856
   148   8 o    1.880 --   149 h    0.870   150 h    0.820
   149   1 h    0.888 --   148 o    0.870
   150   1 h    0.875 --   148 o    0.820
   151   8 o    1.848 --   153 h    0.858   152 h    0.791
   152   1 h    0.868 --   151 o    0.791
   153   1 h    0.892 --   151 o    0.858
   154   8 o    1.840 --   155 h    0.858   156 h    0.843
   155   1 h    0.886 --   154 o    0.858
   156   1 h    0.883 --   154 o    0.843
   157   8 o    1.864 --   158 h    0.821   159 h    0.814
   158   1 h    0.874 --   157 o    0.821
   159   1 h    0.883 --   157 o    0.814
   160   8 o    1.836 --   162 h    0.859   161 h    0.823
   161   1 h    0.886 --   160 o    0.823
   162   1 h    0.892 --   160 o    0.859
   163   8 o    1.862 --   164 h    0.824   165 h    0.820
   164   1 h    0.879 --   163 o    0.824
   165   1 h    0.884 --   163 o    0.820
   166   8 o    1.865 --   167 h    0.840   168 h    0.790
   167   1 h    0.887 --   166 o    0.840
   168   1 h    0.870 --   166 o    0.790
   169   8 o    1.835 --   171 h    0.843   170 h    0.835
   170   1 h    0.890 --   169 o    0.835
   171   1 h    0.889 --   169 o    0.843
   172   8 o    1.826 --   174 h    0.842   173 h    0.826
   173   1 h    0.875 --   172 o    0.826
   174   1 h    0.891 --   172 o    0.842
   175   8 o    1.857 --   176 h    0.827   177 h    0.827
   176   1 h    0.882 --   175 o    0.827
   177   1 h    0.885 --   175 o    0.827
   178   8 o    1.843 --   180 h    0.827   179 h    0.822
   179   1 h    0.884 --   178 o    0.822
   180   1 h    0.880 --   178 o    0.827
   181   8 o    1.862 --   182 h    0.819   183 h    0.784
   182   1 h    0.873 --   181 o    0.819
   183   1 h    0.872 --   181 o    0.784
   184   8 o    1.820 --   185 h    0.871   186 h    0.786
   185   1 h    0.896 --   184 o    0.871
   186   1 h    0.866 --   184 o    0.786
   187   8 o    1.786 --   188 h    0.855   189 h    0.836
   188   1 h    0.894 --   187 o    0.855
   189   1 h    0.888 --   187 o    0.836
   190   8 o    1.855 --   192 h    0.819   191 h    0.799
   191   1 h    0.875 --   190 o    0.799
   192   1 h    0.894 --   190 o    0.819
   193   8 o    1.877 --   194 h    0.849   195 h    0.797
   194   1 h    0.889 --   193 o    0.849
   195   1 h    0.876 --   193 o    0.797
   196   8 o    1.836 --   197 h    0.892   198 h    0.779
   197   1 h    0.902 --   196 o    0.892
   198   1 h    0.865 --   196 o    0.779
   199   8 o    1.865 --   201 h    0.821   200 h    0.807
   200   1 h    0.874 --   199 o    0.807
   201   1 h    0.872 --   199 o    0.821
   202   8 o    1.839 --   204 h    0.863   203 h    0.813
   203   1 h    0.875 --   202 o    0.813
   204   1 h    0.899 --   202 o    0.863
   205   8 o    1.868 --   207 h    0.820   206 h    0.785
   206   1 h    0.871 --   205 o    0.785
   207   1 h    0.884 --   205 o    0.820
   208   8 o    1.831 --   210 h    0.834   209 h    0.798
   209   1 h    0.877 --   208 o    0.798
   210   1 h    0.896 --   208 o    0.834
   211   8 o    1.816 --   212 h    0.861   213 h    0.835
   212   1 h    0.894 --   211 o    0.861
   213   1 h    0.877 --   211 o    0.835
   214   8 o    1.836 --   215 h    0.828   216 h    0.823
   215   1 h    0.886 --   214 o    0.828
   216   1 h    0.882 --   214 o    0.823
   217   8 o    1.863 --   218 h    0.841   219 h    0.815
   218   1 h    0.887 --   217 o    0.841
   219   1 h    0.883 --   217 o    0.815
   220   8 o    1.873 --   222 h    0.828   221 h    0.808
   221   1 h    0.876 --   220 o    0.808
   222   1 h    0.881 --   220 o    0.828
   223   8 o    1.853 --   224 h    0.894   225 h    0.856
   224   1 h    0.904 --   223 o    0.894
   225   1 h    0.887 --   223 o    0.856
   226   8 o    1.838 --   227 h    0.836   228 h    0.808
   227   1 h    0.884 --   226 o    0.836
   228   1 h    0.889 --   226 o    0.808
   229   8 o    1.878 --   231 h    0.827   230 h    0.812
   230   1 h    0.873 --   229 o    0.812
   231   1 h    0.887 --   229 o    0.827
   232   8 o    1.826 --   233 h    0.856   234 h    0.836
   233   1 h    0.887 --   232 o    0.856
   234   1 h    0.887 --   232 o    0.836
   235   8 o    1.870 --   236 h    0.868   237 h    0.821
   236   1 h    0.895 --   235 o    0.868
   237   1 h    0.878 --   235 o    0.821
   238   8 o    1.865 --   239 h    0.888   240 h    0.799
   239   1 h    0.902 --   238 o    0.888
   240   1 h    0.869 --   238 o    0.799
   241   8 o    1.843 --   242 h    0.869   243 h    0.799
   242   1 h    0.898 --   241 o    0.869
   243   1 h    0.868 --   241 o    0.799
   244   8 o    1.840 --   246 h    0.821   245 h    0.804
   245   1 h    0.889 --   244 o    0.804
   246   1 h    0.883 --   244 o    0.821
   247   8 o    1.869 --   248 h    0.837   249 h    0.786
   248   1 h    0.886 --   247 o    0.837
   249   1 h    0.867 --   247 o    0.786
   250   8 o    1.851 --   251 h    0.895   252 h    0.793
   251   1 h    0.908 --   250 o    0.895
   252   1 h    0.882 --   250 o    0.793
   253   8 o    1.865 --   254 h    0.877   255 h    0.827
   254   1 h    0.897 --   253 o    0.877
   255   1 h    0.885 --   253 o    0.827
   256   8 o    1.851 --   258 h    0.875   257 h    0.852
   257   1 h    0.888 --   256 o    0.852
   258   1 h    0.898 --   256 o    0.875
   259   8 o    1.827 --   260 h    0.893   261 h    0.806
   260   1 h    0.902 --   259 o    0.893
   261   1 h    0.872 --   259 o    0.806
   262   8 o    1.828 --   264 h    0.823   263 h    0.794
   263   1 h    0.872 --   262 o    0.794
   264   1 h    0.880 --   262 o    0.823
   265   8 o    1.817 --   266 h    0.888   267 h    0.786
   266   1 h    0.905 --   265 o    0.888
   267   1 h    0.871 --   265 o    0.786
   268   8 o    1.829 --   269 h    0.836   270 h    0.826
   269   1 h    0.888 --   268 o    0.836
   270   1 h    0.880 --   268 o    0.826
   271   8 o    1.831 --   273 h    0.817   272 h    0.803
   272   1 h    0.878 --   271 o    0.803
   273   1 h    0.880 --   271 o    0.817
   274   8 o    1.818 --   276 h    0.871   275 h    0.850
   275   1 h    0.890 --   274 o    0.850
   276   1 h    0.893 --   274 o    0.871
   277   8 o    1.849 --   279 h    0.834   278 h    0.821
   278   1 h    0.868 --   277 o    0.821
   279   1 h    0.887 --   277 o    0.834
   280   8 o    1.870 --   281 h    0.817   282 h    0.814
   281   1 h    0.889 --   280 o    0.817
   282   1 h    0.880 --   280 o    0.814
   283   8 o    1.840 --   284 h    0.830   285 h    0.812
   284   1 h    0.893 --   283 o    0.830
   285   1 h    0.875 --   283 o    0.812
   286   8 o    1.821 --   288 h    0.888   287 h    0.822
   287   1 h    0.879 --   286 o    0.822
   288   1 h    0.901 --   286 o    0.888
   289   8 o    1.816 --   291 h    0.874   290 h    0.819
   290   1 h    0.882 --   289 o    0.819
   291   1 h    0.897 --   289 o    0.874
   292   8 o    1.805 --   293 h    0.865   294 h    0.830
   293   1 h    0.894 --   292 o    0.865
   294   1 h    0.886 --   292 o    0.830
   295   8 o    1.854 --   296 h    0.888   297 h    0.790
   296   1 h    0.899 --   295 o    0.888
   297   1 h    0.864 --   295 o    0.790
   298   8 o    1.847 --   299 h    0.798   300 h    0.788
   299   1 h    0.883 --   298 o    0.798
   300   1 h    0.873 --   298 o    0.788
   301   8 o    1.878 --   303 h    0.824   302 h    0.821
   302   1 h    0.882 --   301 o    0.821
   303   1 h    0.871 --   301 o    0.824
   304   8 o    1.859 --   306 h    0.834   305 h    0.806
   305   1 h    0.881 --   304 o    0.806
   306   1 h    0.891 --   304 o    0.834
   307   8 o    1.831 --   308 h    0.819   309 h    0.818
   308   1 h    0.875 --   307 o    0.819
   309   1 h    0.883 --   307 o    0.818
   310   8 o    1.860 --   311 h    0.830   312 h    0.806
   311   1 h    0.894 --   310 o    0.830
   312   1 h    0.877 --   310 o    0.806
   313   8 o    1.860 --   315 h    0.829   314 h    0.812
   314   1 h    0.876 --   313 o    0.812
   315   1 h    0.895 --   313 o    0.829
   316   8 o    1.830 --   318 h    0.835   317 h    0.824
   317   1 h    0.884 --   316 o    0.824
   318   1 h    0.891 --   316 o    0.835
   319   8 o    1.832 --   321 h    0.875   320 h    0.802
   320   1 h    0.875 --   319 o    0.802
   321   1 h    0.894 --   319 o    0.875
   322   8 o    1.875 --   323 h    0.804   324 h    0.785
   323   1 h    0.881 --   322 o    0.804
   324   1 h    0.876 --   322 o    0.785
   325   8 o    1.805 --   327 h    0.874   326 h    0.822
   326   1 h    0.876 --   325 o    0.822
   327   1 h    0.907 --   325 o    0.874
   328   8 o    1.874 --   329 h    0.836   330 h    0.804
   329   1 h    0.888 --   328 o    0.836
   330   1 h    0.862 --   328 o    0.804
   331   8 o    1.821 --   333 h    0.869   332 h    0.828
   332   1 h    0.882 --   331 o    0.828
   333   1 h    0.891 --   331 o    0.869
   334   8 o    1.891 --   336 h    0.830   335 h    0.796
   335   1 h    0.880 --   334 o    0.796
   336   1 h    0.872 --   334 o    0.830
   337   8 o    1.839 --   338 h    0.844   339 h    0.800
   338   1 h    0.889 --   337 o    0.844
   339   1 h    0.875 --   337 o    0.800
   340   8 o    1.848 --   342 h    0.874   341 h    0.818
   341   1 h    0.874 --   340 o    0.818
   342   1 h    0.894 --   340 o    0.874
   343   8 o    1.863 --   345 h    0.853   344 h    0.849
   344   1 h    0.885 --   343 o    0.849
   345   1 h    0.888 --   343 o    0.853
   346   8 o    1.839 --   348 h    0.872   347 h    0.848
   347   1 h    0.879 --   346 o    0.848
   348   1 h    0.895 --   346 o    0.872
   349   8 o    1.855 --   350 h    0.823   351 h    0.822
   350   1 h    0.887 --   349 o    0.823
   351   1 h    0.881 --   349 o    0.822
   352   8 o    1.848 --   353 h    0.896   354 h    0.816
   353   1 h    0.907 --   352 o    0.896
   354   1 h    0.884 --   352 o    0.816
   355   8 o    1.849 --   357 h    0.874   356 h    0.868
   356   1 h    0.886 --   355 o    0.868
   357   1 h    0.889 --   355 o    0.874
   358   8 o    1.850 --   359 h    0.833   360 h    0.827
   359   1 h    0.881 --   358 o    0.833
   360   1 h    0.891 --   358 o    0.827
   361   8 o    1.834 --   362 h    0.851   363 h    0.831
   362   1 h    0.887 --   361 o    0.851
   363   1 h    0.887 --   361 o    0.831
   364   8 o    1.825 --   366 h    0.847   365 h    0.813
[...]
   369   1 h    0.893 --   367 o    0.845
   370   8 o    1.887 --   371 h    0.835   372 h    0.810
   371   1 h    0.891 --   370 o    0.835
   372   1 h    0.888 --   370 o    0.810
   373   8 o    1.856 --   374 h    0.873   375 h    0.814
   374   1 h    0.895 --   373 o    0.873
   375   1 h    0.876 --   373 o    0.814
   376   8 o    1.832 --   377 h    0.824   378 h    0.779
   377   1 h    0.895 --   376 o    0.824
   378   1 h    0.868 --   376 o    0.779
   379   8 o    1.839 --   381 h    0.846   380 h    0.779
   380   1 h    0.869 --   379 o    0.779
   381   1 h    0.897 --   379 o    0.846
   382   8 o    1.839 --   383 h    0.849   384 h    0.814
   383   1 h    0.891 --   382 o    0.849
   384   1 h    0.883 --   382 o    0.814
   385   8 o    1.827 --   386 h    0.857   387 h    0.839
   386   1 h    0.892 --   385 o    0.857
   387   1 h    0.881 --   385 o    0.839
   388   8 o    1.871 --   390 h    0.822   389 h    0.783
   389   1 h    0.870 --   388 o    0.783
   390   1 h    0.878 --   388 o    0.822
   391   8 o    1.815 --   392 h    0.885   393 h    0.836
   392   1 h    0.895 --   391 o    0.885
   393   1 h    0.886 --   391 o    0.836
   394   8 o    1.840 --   396 h    0.865   395 h    0.832
   395   1 h    0.884 --   394 o    0.832
   396   1 h    0.890 --   394 o    0.865
   397   8 o    1.846 --   399 h    0.882   398 h    0.791
   398   1 h    0.865 --   397 o    0.791
   399   1 h    0.898 --   397 o    0.882
   400   8 o    1.833 --   401 h    0.879   402 h    0.773
   401   1 h    0.901 --   400 o    0.879
   402   1 h    0.869 --   400 o    0.773
   403   8 o    1.838 --   405 h    0.842   404 h    0.794
   404   1 h    0.870 --   403 o    0.794
   405   1 h    0.894 --   403 o    0.842
   406   8 o    1.861 --   408 h    0.834   407 h    0.810
   407   1 h    0.875 --   406 o    0.810
   408   1 h    0.895 --   406 o    0.834
   409   8 o    1.841 --   410 h    0.849   411 h    0.831
   410   1 h    0.884 --   409 o    0.849
   411   1 h    0.877 --   409 o    0.831
   412   8 o    1.857 --   414 h    0.826   413 h    0.796
   413   1 h    0.874 --   412 o    0.796
   414   1 h    0.879 --   412 o    0.826
   415   8 o    1.814 --   417 h    0.867   416 h    0.846
   416   1 h    0.890 --   415 o    0.846
   417   1 h    0.892 --   415 o    0.867
   418   8 o    1.852 --   419 h    0.845   420 h    0.801
   419   1 h    0.875 --   418 o    0.845
   420   1 h    0.877 --   418 o    0.801
   421   8 o    1.854 --   423 h    0.814   422 h    0.785
   422   1 h    0.872 --   421 o    0.785
   423   1 h    0.889 --   421 o    0.814
   424   8 o    1.810 --   426 h    0.834   425 h    0.829
   425   1 h    0.895 --   424 o    0.829
   426   1 h    0.884 --   424 o    0.834
   427   8 o    1.826 --   428 h    0.875   429 h    0.837
   428   1 h    0.891 --   427 o    0.875
   429   1 h    0.879 --   427 o    0.837
   430   8 o    1.822 --   432 h    0.820   431 h    0.820
   431   1 h    0.888 --   430 o    0.820
   432   1 h    0.876 --   430 o    0.820
   433   8 o    1.840 --   434 h    0.880   435 h    0.804
   434   1 h    0.898 --   433 o    0.880
   435   1 h    0.873 --   433 o    0.804
   436   8 o    1.858 --   437 h    0.837   438 h    0.835
   437   1 h    0.892 --   436 o    0.837
   438   1 h    0.888 --   436 o    0.835
   439   8 o    1.821 --   440 h    0.835   441 h    0.831
   440   1 h    0.877 --   439 o    0.835
   441   1 h    0.887 --   439 o    0.831
   442   8 o    1.855 --   444 h    0.820   443 h    0.811
   443   1 h    0.880 --   442 o    0.811
   444   1 h    0.886 --   442 o    0.820
   445   8 o    1.806 --   447 h    0.824   446 h    0.822
   446   1 h    0.886 --   445 o    0.822
   447   1 h    0.885 --   445 o    0.824
   448   8 o    1.852 --   450 h    0.901   449 h    0.790
   449   1 h    0.873 --   448 o    0.790
   450   1 h    0.905 --   448 o    0.901
   451   8 o    1.867 --   452 h    0.851   453 h    0.837
   452   1 h    0.889 --   451 o    0.851
   453   1 h    0.879 --   451 o    0.837
   454   8 o    1.882 --   456 h    0.831   455 h    0.818
   455   1 h    0.874 --   454 o    0.818
   456   1 h    0.882 --   454 o    0.831
   457   8 o    1.838 --   458 h    0.827   459 h    0.822
   458   1 h    0.881 --   457 o    0.827
   459   1 h    0.885 --   457 o    0.822
   460   8 o    1.864 --   462 h    0.857   461 h    0.789
   461   1 h    0.874 --   460 o    0.789
   462   1 h    0.889 --   460 o    0.857
   463   8 o    1.849 --   465 h    0.856   464 h    0.830
   464   1 h    0.877 --   463 o    0.830
   465   1 h    0.889 --   463 o    0.856
   466   8 o    1.838 --   467 h    0.832   468 h    0.798
   467   1 h    0.878 --   466 o    0.832
   468   1 h    0.887 --   466 o    0.798
   469   8 o    1.832 --   471 h    0.834   470 h    0.830
   470   1 h    0.882 --   469 o    0.830
   471   1 h    0.880 --   469 o    0.834
   472   8 o    1.839 --   474 h    0.869   473 h    0.847
   473   1 h    0.883 --   472 o    0.847
   474   1 h    0.888 --   472 o    0.869
   475   8 o    1.822 --   476 h    0.859   477 h    0.784
   476   1 h    0.895 --   475 o    0.859
   477   1 h    0.872 --   475 o    0.784
   478   8 o    1.841 --   480 h    0.881   479 h    0.784
   479   1 h    0.868 --   478 o    0.784
   480   1 h    0.901 --   478 o    0.881
   481   8 o    1.850 --   482 h    0.841   483 h    0.829
   482   1 h    0.891 --   481 o    0.841
   483   1 h    0.888 --   481 o    0.829
   484   8 o    1.819 --   486 h    0.818   485 h    0.789
   485   1 h    0.877 --   484 o    0.789
   486   1 h    0.892 --   484 o    0.818
   487   8 o    1.829 --   488 h    0.863   489 h    0.841
   488   1 h    0.890 --   487 o    0.863
   489   1 h    0.881 --   487 o    0.841
   490   8 o    1.835 --   491 h    0.887   492 h    0.787
   491   1 h    0.902 --   490 o    0.887
   492   1 h    0.868 --   490 o    0.787
   493   8 o    1.829 --   494 h    0.820   495 h    0.805
   494   1 h    0.891 --   493 o    0.820
   495   1 h    0.873 --   493 o    0.805
   496   8 o    1.820 --   497 h    0.900   498 h    0.791
   497   1 h    0.904 --   496 o    0.900
   498   1 h    0.873 --   496 o    0.791
   499   8 o    1.850 --   500 h    0.847   501 h    0.821
   500   1 h    0.894 --   499 o    0.847
   501   1 h    0.872 --   499 o    0.821
   502   8 o    1.819 --   503 h    0.844   504 h    0.826
   503   1 h    0.894 --   502 o    0.844
   504   1 h    0.889 --   502 o    0.826
   505   8 o    1.806 --   507 h    0.847   506 h    0.831
   506   1 h    0.891 --   505 o    0.831
   507   1 h    0.884 --   505 o    0.847
   508   8 o    1.856 --   510 h    0.831   509 h    0.805
   509   1 h    0.870 --   508 o    0.805
   510   1 h    0.878 --   508 o    0.831
   511   8 o    1.797 --   513 h    0.840   512 h    0.823
   512   1 h    0.879 --   511 o    0.823
   513   1 h    0.894 --   511 o    0.840
   514   8 o    1.840 --   515 h    0.858   516 h    0.838
   515   1 h    0.887 --   514 o    0.858
   516   1 h    0.881 --   514 o    0.838
   517   8 o    1.863 --   519 h    0.883   518 h    0.826
   518   1 h    0.875 --   517 o    0.826
   519   1 h    0.893 --   517 o    0.883
   520   8 o    1.821 --   522 h    0.870   521 h    0.800
   521   1 h    0.873 --   520 o    0.800
   522   1 h    0.902 --   520 o    0.870
   523   8 o    1.811 --   525 h    0.850   524 h    0.827
   524   1 h    0.880 --   523 o    0.827
   525   1 h    0.896 --   523 o    0.850
   526   8 o    1.811 --   527 h    0.857   528 h    0.853
   527   1 h    0.888 --   526 o    0.857
   528   1 h    0.885 --   526 o    0.853
   529   8 o    1.843 --   530 h    0.826   531 h    0.786
   530   1 h    0.895 --   529 o    0.826
   531   1 h    0.866 --   529 o    0.786
   532   8 o    1.833 --   534 h    0.836   533 h    0.829
   533   1 h    0.885 --   532 o    0.829
   534   1 h    0.887 --   532 o    0.836
   535   8 o    1.855 --   536 h    0.846   537 h    0.831
   536   1 h    0.886 --   535 o    0.846
   537   1 h    0.885 --   535 o    0.831
   538   8 o    1.834 --   540 h    0.821   539 h    0.819
   539   1 h    0.874 --   538 o    0.819
   540   1 h    0.889 --   538 o    0.821
   541   8 o    1.827 --   542 h    0.842   543 h    0.834
   542   1 h    0.888 --   541 o    0.842
   543   1 h    0.882 --   541 o    0.834
   544   8 o    1.866 --   545 h    0.901   546 h    0.774
   545   1 h    0.905 --   544 o    0.901
   546   1 h    0.867 --   544 o    0.774
   547   8 o    1.819 --   549 h    0.852   548 h    0.807
   548   1 h    0.873 --   547 o    0.807
   549   1 h    0.901 --   547 o    0.852
   550   8 o    1.864 --   551 h    0.847   552 h    0.826
   551   1 h    0.889 --   550 o    0.847
   552   1 h    0.878 --   550 o    0.826
   553   8 o    1.815 --   554 h    0.849   555 h    0.834
   554   1 h    0.889 --   553 o    0.849
   555   1 h    0.882 --   553 o    0.834
   556   8 o    1.870 --   557 h    0.841   558 h    0.788
   557   1 h    0.889 --   556 o    0.841
   558   1 h    0.866 --   556 o    0.788
   559   8 o    1.840 --   560 h    0.834   561 h    0.820
   560   1 h    0.891 --   559 o    0.834
   561   1 h    0.870 --   559 o    0.820
   562   8 o    1.850 --   564 h    0.794   563 h    0.774
   563   1 h    0.882 --   562 o    0.774
   564   1 h    0.871 --   562 o    0.794
   565   8 o    1.860 --   566 h    0.840   567 h    0.834
   566   1 h    0.888 --   565 o    0.840
   567   1 h    0.893 --   565 o    0.834
   568   8 o    1.823 --   569 h    0.897   570 h    0.824
   569   1 h    0.903 --   568 o    0.897
   570   1 h    0.872 --   568 o    0.824
   571   8 o    1.864 --   572 h    0.808   573 h    0.805
   572   1 h    0.874 --   571 o    0.808
   573   1 h    0.874 --   571 o    0.805
   574   8 o    1.818 --   575 h    0.843   576 h    0.839
   575   1 h    0.889 --   574 o    0.843
   576   1 h    0.879 --   574 o    0.839
   577   8 o    1.818 --   578 h    0.874   579 h    0.831
   578   1 h    0.897 --   577 o    0.874
   579   1 h    0.884 --   577 o    0.831
   580   8 o    1.859 --   581 h    0.841   582 h    0.832
   581   1 h    0.883 --   580 o    0.841
   582   1 h    0.879 --   580 o    0.832
   583   8 o    1.794 --   584 h    0.874   585 h    0.822
   584   1 h    0.895 --   583 o    0.874
   585   1 h    0.881 --   583 o    0.822
   586   8 o    1.851 --   588 h    0.881   587 h    0.797
   587   1 h    0.866 --   586 o    0.797
   588   1 h    0.896 --   586 o    0.881
   589   8 o    1.803 --   590 h    0.857   591 h    0.798
   590   1 h    0.897 --   589 o    0.857
   591   1 h    0.872 --   589 o    0.798
   592   8 o    1.852 --   593 h    0.864   594 h    0.827
   593   1 h    0.895 --   592 o    0.864
   594   1 h    0.872 --   592 o    0.827
   595   8 o    1.824 --   596 h    0.862   597 h    0.826
   596   1 h    0.898 --   595 o    0.862
   597   1 h    0.872 --   595 o    0.826
   598   8 o    1.816 --   599 h    0.864   600 h    0.838
   599   1 h    0.896 --   598 o    0.864
   600   1 h    0.891 --   598 o    0.838
   601   8 o    1.861 --   602 h    0.840   603 h    0.838
   602   1 h    0.887 --   601 o    0.840
   603   1 h    0.888 --   601 o    0.838
   604   8 o    1.848 --   605 h    0.863   606 h    0.856
   605   1 h    0.888 --   604 o    0.863
   606   1 h    0.888 --   604 o    0.856
   607   8 o    1.803 --   608 h    0.834   609 h    0.823
   608   1 h    0.890 --   607 o    0.834
   609   1 h    0.884 --   607 o    0.823
   610   8 o    1.826 --   612 h    0.896   611 h    0.838
   611   1 h    0.871 --   610 o    0.838
   612   1 h    0.902 --   610 o    0.896
   613   8 o    1.833 --   615 h    0.851   614 h    0.822
   614   1 h    0.884 --   613 o    0.822
   615   1 h    0.884 --   613 o    0.851
   616   8 o    1.839 --   618 h    0.824   617 h    0.813
   617   1 h    0.878 --   616 o    0.813
   618   1 h    0.895 --   616 o    0.824
   619   8 o    1.848 --   621 h    0.851   620 h    0.818
   620   1 h    0.879 --   619 o    0.818
   621   1 h    0.887 --   619 o    0.851
   622   8 o    1.801 --   623 h    0.843   624 h    0.830
   623   1 h    0.891 --   622 o    0.843
   624   1 h    0.885 --   622 o    0.830
   625   8 o    1.818 --   627 h    0.845   626 h    0.799
   626   1 h    0.878 --   625 o    0.799
   627   1 h    0.895 --   625 o    0.845
   628   8 o    1.855 --   629 h    0.839   630 h    0.790
   629   1 h    0.888 --   628 o    0.839
   630   1 h    0.877 --   628 o    0.790
   631   8 o    1.835 --   632 h    0.859   633 h    0.847
   632   1 h    0.895 --   631 o    0.859
   633   1 h    0.875 --   631 o    0.847
   634   8 o    1.818 --   635 h    0.898   636 h    0.777
   635   1 h    0.906 --   634 o    0.898
   636   1 h    0.880 --   634 o    0.777
   637   8 o    1.836 --   639 h    0.840   638 h    0.837
   638   1 h    0.884 --   637 o    0.837
   639   1 h    0.884 --   637 o    0.840
   640   8 o    1.824 --   641 h    0.816   642 h    0.809
   641   1 h    0.880 --   640 o    0.816
   642   1 h    0.882 --   640 o    0.809
   643   8 o    1.876 --   644 h    0.896   645 h    0.802
   644   1 h    0.901 --   643 o    0.896
   645   1 h    0.864 --   643 o    0.802
   646   8 o    1.834 --   647 h    0.896   648 h    0.813
   647   1 h    0.901 --   646 o    0.896
   648   1 h    0.877 --   646 o    0.813
   649   8 o    1.811 --   650 h    0.868   651 h    0.793
   650   1 h    0.901 --   649 o    0.868
   651   1 h    0.882 --   649 o    0.793
   652   8 o    1.845 --   653 h    0.869   654 h    0.843
   653   1 h    0.891 --   652 o    0.869
   654   1 h    0.881 --   652 o    0.843
   655   8 o    1.855 --   656 h    0.805   657 h    0.802
   656   1 h    0.887 --   655 o    0.805
   657   1 h    0.883 --   655 o    0.802
   658   8 o    1.857 --   659 h    0.889   660 h    0.783
   659   1 h    0.900 --   658 o    0.889
   660   1 h    0.865 --   658 o    0.783
   661   8 o    1.838 --   663 h    0.852   662 h    0.830
   662   1 h    0.880 --   661 o    0.830
   663   1 h    0.885 --   661 o    0.852
   664   8 o    1.834 --   665 h    0.891   666 h    0.795
   665   1 h    0.902 --   664 o    0.891
   666   1 h    0.875 --   664 o    0.795
   667   8 o    1.820 --   668 h    0.868   669 h    0.801
   668   1 h    0.896 --   667 o    0.868
   669   1 h    0.873 --   667 o    0.801
   670   8 o    1.870 --   672 h    0.857   671 h    0.804
   671   1 h    0.868 --   670 o    0.804
   672   1 h    0.895 --   670 o    0.857
   673   8 o    1.845 --   675 h    0.863   674 h    0.816
   674   1 h    0.868 --   673 o    0.816
   675   1 h    0.898 --   673 o    0.863
   676   8 o    1.800 --   678 h    0.868   677 h    0.864
   677   1 h    0.888 --   676 o    0.864
   678   1 h    0.892 --   676 o    0.868
   679   8 o    1.833 --   680 h    0.863   681 h    0.849
   680   1 h    0.889 --   679 o    0.863
   681   1 h    0.884 --   679 o    0.849
   682   8 o    1.850 --   684 h    0.815   683 h    0.812
   683   1 h    0.877 --   682 o    0.812
   684   1 h    0.871 --   682 o    0.815
   685   8 o    1.833 --   687 h    0.855   686 h    0.845
   686   1 h    0.884 --   685 o    0.845
   687   1 h    0.890 --   685 o    0.855
   688   8 o    1.844 --   689 h    0.882   690 h    0.861
   689   1 h    0.898 --   688 o    0.882
   690   1 h    0.891 --   688 o    0.861
   691   8 o    1.812 --   692 h    0.892   693 h    0.805
   692   1 h    0.903 --   691 o    0.892
   693   1 h    0.871 --   691 o    0.805
   694   8 o    1.822 --   696 h    0.830   695 h    0.816
   695   1 h    0.885 --   694 o    0.816
   696   1 h    0.886 --   694 o    0.830
   697   8 o    1.864 --   699 h    0.839   698 h    0.791
   698   1 h    0.879 --   697 o    0.791
   699   1 h    0.894 --   697 o    0.839
   700   8 o    1.849 --   701 h    0.875   702 h    0.816
   701   1 h    0.894 --   700 o    0.875
   702   1 h    0.881 --   700 o    0.816
   703   8 o    1.869 --   704 h    0.856   705 h    0.803
   704   1 h    0.892 --   703 o    0.856
   705   1 h    0.876 --   703 o    0.803
   706   8 o    1.826 --   707 h    0.869   708 h    0.820
   707   1 h    0.898 --   706 o    0.869
   708   1 h    0.880 --   706 o    0.820
   709   8 o    1.817 --   711 h    0.848   710 h    0.828
   710   1 h    0.882 --   709 o    0.828
   711   1 h    0.893 --   709 o    0.848
   712   8 o    1.832 --   714 h    0.827   713 h    0.760
   713   1 h    0.869 --   712 o    0.760
   714   1 h    0.890 --   712 o    0.827
   715   8 o    1.835 --   717 h    0.825   716 h    0.794
   716   1 h    0.870 --   715 o    0.794
   717   1 h    0.884 --   715 o    0.825
   718   8 o    1.842 --   719 h    0.847   720 h    0.783
   719   1 h    0.890 --   718 o    0.847
   720   1 h    0.868 --   718 o    0.783
   721   8 o    1.839 --   723 h    0.819   722 h    0.804
   722   1 h    0.883 --   721 o    0.804
   723   1 h    0.892 --   721 o    0.819
   724   8 o    1.851 --   726 h    0.860   725 h    0.821
   725   1 h    0.870 --   724 o    0.821
   726   1 h    0.896 --   724 o    0.860
   727   8 o    1.849 --   729 h    0.858   728 h    0.817
   728   1 h    0.887 --   727 o    0.817
   729   1 h    0.890 --   727 o    0.858
   730   8 o    1.833 --   731 h    0.892   732 h    0.819
   731   1 h    0.900 --   730 o    0.892
   732   1 h    0.873 --   730 o    0.819
   733   8 o    1.811 --   734 h    0.825   735 h    0.811
   734   1 h    0.891 --   733 o    0.825
   735   1 h    0.883 --   733 o    0.811
   736   8 o    1.775 --   738 h    0.889   737 h    0.820
   737   1 h    0.877 --   736 o    0.820
   738   1 h    0.908 --   736 o    0.889
   739   8 o    1.819 --   741 h    0.875   740 h    0.817
   740   1 h    0.879 --   739 o    0.817
   741   1 h    0.897 --   739 o    0.875
   742   8 o    1.848 --   744 h    0.848   743 h    0.836
   743   1 h    0.886 --   742 o    0.836
   744   1 h    0.892 --   742 o    0.848
   745   8 o    1.887 --   747 h    0.825   746 h    0.818
   746   1 h    0.881 --   745 o    0.818
   747   1 h    0.890 --   745 o    0.825
   748   8 o    1.863 --   749 h    0.843   750 h    0.767
   749   1 h    0.888 --   748 o    0.843
   750   1 h    0.860 --   748 o    0.767
   751   8 o    1.821 --   752 h    0.892   753 h    0.819
   752   1 h    0.903 --   751 o    0.892
   753   1 h    0.880 --   751 o    0.819
   754   8 o    1.839 --   755 h    0.886   756 h    0.857
   755   1 h    0.897 --   754 o    0.886
   756   1 h    0.889 --   754 o    0.857
 ---------------------------------------------------------------------------

Topologies differ in total number of bonds
Writing topology from bond orders to xtbtopo.mol

molecular dipole:
                 x           y           z       tot (Debye)
 q only:       -1.549       1.596       0.355
   full:       -2.577       1.877       0.036       8.104
molecular quadrupole (traceless):
                xx          xy          yy          xz          yz          zz
 q only:      167.062     -57.849    -108.301      81.879      29.382     -58.761
  q+dip:      218.481     -56.849    -153.389      92.286      28.978     -65.091
   full:      220.378     -55.907    -155.441      92.132      28.671     -64.937


           -------------------------------------------------
          | TOTAL ENERGY            -1283.534051963531 Eh   |
          | GRADIENT NORM               0.125971548894 Eh/α |
          | HOMO-LUMO GAP               6.877505715803 eV   |
           -------------------------------------------------

------------------------------------------------------------------------
 * finished run on 2022/11/24 at 12:21:39.583     
------------------------------------------------------------------------
 total:
 * wall-time:     0 d,  0 h,  0 min, 22.897 sec
 *  cpu-time:     0 d,  0 h,  0 min, 37.321 sec
 * ratio c/w:     1.630 speedup
 SCF:
 * wall-time:     0 d,  0 h,  0 min, 21.856 sec
 *  cpu-time:     0 d,  0 h,  0 min, 35.610 sec
 * ratio c/w:     1.629 speedup

