      -----------------------------------------------------------      
     |                   =====================                   |     
     |                           x T B                           |     
     |                   =====================                   |     
     |                         S. Grimme                         |     
     |          Mulliken Center for Theoretical Chemistry        |     
     |                    University of Bonn                     |     
      -----------------------------------------------------------      

   * xtb version 6.5.1 (579679a) compiled by 'ehlert@majestix' on 2022-07-11

   xtb is free software: you can redistribute it and/or modify it under
   the terms of the GNU Lesser General Public License as published by
   the Free Software Foundation, either version 3 of the License, or
   (at your option) any later version.
   
   xtb is distributed in the hope that it will be useful,
   but WITHOUT ANY WARRANTY; without even the implied warranty of
   MERCHANTABILITY or FITNESS FOR A PARTICULAR PURPOSE.  See the
   GNU Lesser General Public License for more details.
   
   Cite this work as:
   * C. Bannwarth, E. Caldeweyher, S. Ehlert, A. Hansen, P. Pracht,
     J. Seibert, S. Spicher, S. Grimme, WIREs Comput. Mol. Sci., 2020, 11,
     e01493. DOI: 10.1002/wcms.1493
   
   for GFN2-xTB:
   * C. Bannwarth, S. Ehlert and S. Grimme., J. Chem. Theory Comput., 2019,
     15, 1652-1671. DOI: 10.1021/acs.jctc.8b01176
   for GFN1-xTB:
   * S. Grimme, C. Bannwarth, P. Shushkov, J. Chem. Theory Comput., 2017,
     13, 1989-2009. DOI: 10.1021/acs.jctc.7b00118
   for GFN0-xTB:
   * P. Pracht, E. Caldeweyher, S. Ehlert, S. Grimme, ChemRxiv, 2019, preprint.
     DOI: 10.26434/chemrxiv.8326202.v1
   for GFN-FF:
   * S. Spicher and S. Grimme, Angew. Chem. Int. Ed., 2020, 59, 15665-15673.
     DOI: 10.1002/anie.202004239
   
   for ALPB and GBSA implicit solvation:
   * S. Ehlert, M. Stahn, S. Spicher, S. Grimme, J. Chem. Theory Comput.,
     2021, 17, 4250-4261. DOI: 10.1021/acs.jctc.1c00471
   
   for DFT-D4:
   * E. Caldeweyher, C. Bannwarth and S. Grimme, J. Chem. Phys., 2017,
     147, 034112. DOI: 10.1063/1.4993215
   * E. Caldeweyher, S. Ehlert, A. Hansen, H. Neugebauer, S. Spicher,
     C. Bannwarth and S. Grimme, J. Chem. Phys., 2019, 150, 154122.
     DOI: 10.1063/1.5090222
   * E. Caldeweyher, J.-M. Mewes, S. Ehlert and S. Grimme, Phys. Chem. Chem. Phys.
     2020, 22, 8499-8512. DOI: 10.1039/D0CP00502A
   
   for sTDA-xTB:
   * S. Grimme and C. Bannwarth, J. Chem. Phys., 2016, 145, 054103.
     DOI: 10.1063/1.4959605
   
   in the mass-spec context:
   * V. Asgeirsson, C. Bauer and S. Grimme, Chem. Sci., 2017, 8, 4879.
     DOI: 10.1039/c7sc00601b
   * J. Koopman and S. Grimme, ACS Omega 2019, 4, 12, 15120-15133.
     DOI: 10.1021/acsomega.9b02011
   
   for metadynamics refer to:
   * S. Grimme, J. Chem. Theory Comput., 2019, 155, 2847-2862
     DOI: 10.1021/acs.jctc.9b00143
   
   for SPH calculations refer to:
   * S. Spicher and S. Grimme, J. Chem. Theory Comput., 2021, 17, 1701-1714
     DOI: 10.1021/acs.jctc.0c01306
   
   with help from (in alphabetical order)
   P. Atkinson, C. Bannwarth, F. Bohle, G. Brandenburg, E. Caldeweyher
   M. Checinski, S. Dohm, S. Ehlert, S. Ehrlich, I. Gerasimov, C. Hölzer
   A. Katbashev, J. Koopman, C. Lavigne, S. Lehtola, F. März, M. Müller,
   F. Musil, H. Neugebauer, J. Pisarek, C. Plett, P. Pracht, F. Pultar,
   J. Seibert, P. Shushkov, S. Spicher, M. Stahn, M. Steiner, T. Strunk,
   J. Stückrath, T. Rose, and J. Unsleber
   
 * started run on 2022/11/24 at 12:21:40.836     

           -------------------------------------------------
          |                Calculation Setup                |
           -------------------------------------------------

          program call               : xtb solvent_cluster.coord --gfn2 --sp --lmo --chrg 0
          hostname                   : cn0430
          coordinate file            : solvent_cluster.coord
          omp threads                :                     2

   ID    Z sym.   atoms
    1    8 o      1, 4, 7, 10, 13, 16, 19, 22, 25, 28, 31, 34, 37, 40, 43,
                  46, 49, 52, 55, 58, 61, 64, 67, 70, 73, 76, 79, 82, 85, 88,
                  91, 94, 97, 100, 103, 106, 109, 112, 115, 118, 121, 124,
                  127, 130, 133, 136, 139, 142, 145, 148, 151, 154, 157, 160,
                  163, 166, 169, 172, 175, 178, 181, 184, 187, 190, 193, 196,
                  199, 202, 205, 208, 211, 214, 217, 220, 223, 226, 229, 232,
                  235, 238, 241, 244, 247, 250, 253, 256, 259, 262, 265, 268,
                  271, 274, 277, 280, 283, 286, 289, 292, 295, 298, 301, 304,
                  307, 310, 313, 316, 319, 322, 325, 328, 331, 334, 337, 340,
                  343, 346, 349, 352, 355, 358, 361, 364, 367, 370, 373, 376,
                  379, 382, 385, 388, 391, 394, 397, 400, 403, 406, 409, 412,
                  415, 418, 421, 424, 427, 430, 433, 436, 439, 442, 445, 448,
                  451, 454, 457, 460, 463, 466, 469, 472, 475, 478, 481, 484,
                  487, 490, 493, 496, 499, 502, 505, 508, 511, 514, 517, 520,
                  523, 526, 529, 532, 535, 538, 541, 544, 547, 550, 553, 556,
                  559, 562, 565, 568, 571, 574, 577, 580, 583, 586, 589, 592,
                  595, 598, 601, 604, 607, 610, 613, 616, 619, 622, 625, 628,
                  631, 634, 637, 640, 643, 646, 649, 652, 655, 658, 661, 664,
                  667, 670, 673, 676, 679, 682, 685, 688, 691, 694, 697, 700,
                  703, 706, 709, 712, 715, 718, 721, 724, 727, 730, 733, 736,
                  739, 742, 745, 748, 751, 754
    2    1 h      2, 3, 5, 6, 8, 9, 11, 12, 14, 15, 17, 18, 20, 21, 23, 24,
                  26, 27, 29, 30, 32, 33, 35, 36, 38, 39, 41, 42, 44, 45, 47,
                  48, 50, 51, 53, 54, 56, 57, 59, 60, 62, 63, 65, 66, 68, 69,
                  71, 72, 74, 75, 77, 78, 80, 81, 83, 84, 86, 87, 89, 90, 92,
                  93, 95, 96, 98, 99, 101, 102, 104, 105, 107, 108, 110, 111,
                  113, 114, 116, 117, 119, 120, 122, 123, 125, 126, 128, 129,
                  131, 132, 134, 135, 137, 138, 140, 141, 143, 144, 146, 147,
                  149, 150, 152, 153, 155, 156, 158, 159, 161, 162, 164, 165,
                  167, 168, 170, 171, 173, 174, 176, 177, 179, 180, 182, 183,
                  185, 186, 188, 189, 191, 192, 194, 195, 197, 198, 200, 201,
                  203, 204, 206, 207, 209, 210, 212, 213, 215, 216, 218, 219,
                  221, 222, 224, 225, 227, 228, 230, 231, 233, 234, 236, 237,
                  239, 240, 242, 243, 245, 246, 248, 249, 251, 252, 254, 255,
                  257, 258, 260, 261, 263, 264, 266, 267, 269, 270, 272, 273,
                  275, 276, 278, 279, 281, 282, 284, 285, 287, 288, 290, 291,
                  293, 294, 296, 297, 299, 300, 302, 303, 305, 306, 308, 309,
                  311, 312, 314, 315, 317, 318, 320, 321, 323, 324, 326, 327,
                  329, 330, 332, 333, 335, 336, 338, 339, 341, 342, 344, 345,
                  347, 348, 350, 351, 353, 354, 356, 357, 359, 360, 362, 363,
                  365, 366, 368, 369, 371, 372, 374, 375, 377, 378, 380, 381,
                  383, 384, 386, 387, 389, 390, 392, 393, 395, 396, 398, 399,
                  401, 402, 404, 405, 407, 408, 410, 411, 413, 414, 416, 417,
                  419, 420, 422, 423, 425, 426, 428, 429, 431, 432, 434, 435,
                  437, 438, 440, 441, 443, 444, 446, 447, 449, 450, 452, 453,
                  455, 456, 458, 459, 461, 462, 464, 465, 467, 468, 470, 471,
                  473, 474, 476, 477, 479, 480, 482, 483, 485, 486, 488, 489,
                  491, 492, 494, 495, 497, 498, 500, 501, 503, 504, 506, 507,
                  509, 510, 512, 513, 515, 516, 518, 519, 521, 522, 524, 525,
                  527, 528, 530, 531, 533, 534, 536, 537, 539, 540, 542, 543,
                  545, 546, 548, 549, 551, 552, 554, 555, 557, 558, 560, 561,
                  563, 564, 566, 567, 569, 570, 572, 573, 575, 576, 578, 579,
                  581, 582, 584, 585, 587, 588, 590, 591, 593, 594, 596, 597,
                  599, 600, 602, 603, 605, 606, 608, 609, 611, 612, 614, 615,
                  617, 618, 620, 621, 623, 624, 626, 627, 629, 630, 632, 633,
                  635, 636, 638, 639, 641, 642, 644, 645, 647, 648, 650, 651,
                  653, 654, 656, 657, 659, 660, 662, 663, 665, 666, 668, 669,
                  671, 672, 674, 675, 677, 678, 680, 681, 683, 684, 686, 687,
                  689, 690, 692, 693, 695, 696, 698, 699, 701, 702, 704, 705,
                  707, 708, 710, 711, 713, 714, 716, 717, 719, 720, 722, 723,
                  725, 726, 728, 729, 731, 732, 734, 735, 737, 738, 740, 741,
                  743, 744, 746, 747, 749, 750, 752, 753, 755, 756

molecular fragmentation (1/2 indicates fragments):
111222222222222222222222222222222222222222222222222222222222222222222222
222222222222222222222222222222222222222222222222222222222222222222222222
222222222222222222222222222222222222222222222222222222222222222222222222
222222222222222222222222222222222222222222222222222222222222222222222222
222222222222222222222222222222222222222222222222222222222222222222222222
222222222222222222222222222222222222222222222222222222222222222222222222
222222222222222222222222222222222222222222222222222222222222222222222222
222222222222222222222222222222222222222222222222222222222222222222222222
222222222222222222222222222222222222222222222222222222222222222222222222
222222222222222222222222222222222222222222222222222222222222222222222222
222222222222222222222222222222222222
# atoms in fragment 1/2:     3   753
 fragment masses (1/2) :       18.02     4521.84
CMA distance (Bohr)    :  17.570
constraining FC (au)   :  0.0500

           -------------------------------------------------
          |                 G F N 2 - x T B                 |
           -------------------------------------------------

        Reference                      10.1021/acs.jctc.8b01176
      * Hamiltonian:
        H0-scaling (s, p, d)           1.850000    2.230000    2.230000
        zeta-weighting                 0.500000
      * Dispersion:
        s8                             2.700000
        a1                             0.520000
        a2                             5.000000
        s9                             5.000000
      * Repulsion:
        kExp                           1.500000    1.000000
        rExp                           1.000000
      * Coulomb:
        alpha                          2.000000
        third order                    shell-resolved
        anisotropic                    true
        a3                             3.000000
        a5                             4.000000
        cn-shift                       1.200000
        cn-exp                         4.000000
        max-rad                        5.000000


          ...................................................
          :                      SETUP                      :
          :.................................................:
          :  # basis functions                1512          :
          :  # atomic orbitals                1512          :
          :  # shells                         1008          :
          :  # electrons                      2016          :
          :  max. iterations                   250          :
          :  Hamiltonian                  GFN2-xTB          :
          :  restarted?                      false          :
          :  GBSA solvation                  false          :
          :  PC potential                    false          :
          :  electronic temp.          300.0000000     K    :
          :  accuracy                    1.0000000          :
          :  -> integral cutoff          0.2500000E+02      :
          :  -> integral neglect         0.1000000E-07      :
          :  -> SCF convergence          0.1000000E-05 Eh   :
          :  -> wf. convergence          0.1000000E-03 e    :
          :  Broyden damping             0.4000000          :
          ...................................................

 iter      E             dE          RMSdq      gap      omega  full diag
   1  -1291.0004283 -0.129100E+04  0.408E+00    8.40       0.0  T
   2  -1291.0826585 -0.822302E-01  0.242E+00    7.12       1.0  T
   3  -1291.1152192 -0.325607E-01  0.214E-01    5.47       1.0  T
   4  -1291.1208577 -0.563842E-02  0.468E-02    5.94       1.0  T
   5  -1291.1209486 -0.909308E-04  0.314E-02    5.87       1.0  T
   6  -1291.1209915 -0.429017E-04  0.461E-03    5.91       1.0  T
   7  -1291.1209943 -0.281474E-05  0.776E-04    5.90       4.7  T
   8  -1291.1209943 -0.325597E-07  0.397E-04    5.90       9.2  T
   9  -1291.1209943 -0.151460E-07  0.659E-05    5.90      55.2  T

   *** convergence criteria satisfied after 9 iterations ***

         #    Occupation            Energy/Eh            Energy/eV
      -------------------------------------------------------------
         1        2.0000           -0.7031711             -19.1343
       ...           ...                  ...                  ...
      1002        2.0000           -0.3472453              -9.4490
      1003        2.0000           -0.3450302              -9.3887
      1004        2.0000           -0.3364590              -9.1555
      1005        2.0000           -0.3336603              -9.0794
      1006        2.0000           -0.3314460              -9.0191
      1007        2.0000           -0.3294075              -8.9636
      1008        2.0000           -0.3100717              -8.4375 (HOMO)
      1009                         -0.0930999              -2.5334 (LUMO)
      1010                         -0.0886564              -2.4125
      1011                         -0.0689892              -1.8773
      1012                         -0.0624977              -1.7006
      1013                         -0.0582347              -1.5846
       ...                                ...                  ...
      1512                          0.4780320              13.0079
      -------------------------------------------------------------
                  HL-Gap            0.2169718 Eh            5.9041 eV
             Fermi-level           -0.2015858 Eh           -5.4854 eV
 
 localization/xTB-IFF output generation
 averaging CT terms over            1  occ. levels
 averaging CT terms over            2  virt. levels
 dipole moment from electron density (au)
     X       Y       Z   
  -2.3858   1.6078  -0.0566  total (Debye):    7.314
cpu  time for init local    0.79 s
wall time for init local    0.40 s
 doing rotations ...
 initialization of trafo matrix to unity

 converged in     16 iterations, threshold :   0.99999551D-06
 doing transformations ...
 lmo centers(Z=2) and atoms on file <lmocent.coord>
 LMO Fii/eV  ncent    charge center   contributions...
    1 LP   *******   0.00  -8.80811  -3.82620 -13.01028  196O : 28.32  565O : 25.28  187O : 19.78  685O : 19.06   88O : 17.21  619O : 17.05    7O : 17.02  454O : 16.99  331O : 16.80  292O : 16.63  307O : 16.40  304O : 15.62
  289O : 15.18  445O : 15.00  520O : 13.40  130O : 13.26  625O : 13.06  337O : 12.91  142O : 12.76  646O : 12.39  577O : 12.22   85O : 12.08  103O : 12.00   82O : 11.86
   34O : 11.30  541O : 11.16  400O : 11.05  229O : 10.63   55O : 10.60  373O : 10.55  745O : 10.48  265O : 10.24  163O : 10.13  352O :  9.58   61O :  9.57   76O :  9.49
  664O :  9.43  370O :  9.32  742O :  9.18  367O :  8.96  568O :  8.91   28O :  8.88  172O :  8.86  427O :  8.74  181O :  8.72   16O :  8.64  724O :  8.28  217O :  8.27
  469O :  8.13  238O :  8.11  184O :  8.10  115O :  7.95  670O :  7.90  598O :  7.67  262O :  7.63   67O :  7.39  616O :  7.39  193O :  7.13  322O :  7.06  118O :  7.02
  208O :  6.95  202O :  6.83  268O :  6.81   31O :  6.74  319O :  6.71  667O :  6.67  532O :  6.66  709O :  6.64  559O :  6.58  472O :  6.57  610O :  6.57  547O :  6.37
  703O :  6.36  199O :  6.35  418O :  6.34  157O :  6.25  463O :  6.22  166O :  5.81  751O :  5.81  637O :  5.78  556O :  5.75  409O :  5.71   64O :  5.67  364O :  5.61
  310O :  5.56  658O :  5.52  661O :  5.45  145O :  5.31  415O :  5.23  316O :  5.13  121O :  5.08  190O :  4.89  652O :  4.86   70O :  4.86  301O :  4.85  421O :  4.82
  526O :  4.81  406O :  4.72  148O :  4.70  385O :  4.69  481O :  4.69  283O :  4.56  631O :  4.52  508O :  4.48  340O :  4.47  649O :  4.46  721O :  4.44  538O :  4.41
  334O :  4.37  211O :  4.34  478O :  4.25  589O :  4.22  376O :  4.20  622O :  4.20  100O :  4.04   40O :  4.02   46O :  4.02  250O :  4.00   73O :  3.98  448O :  3.95
  754O :  3.86  451O :  3.85  280O :  3.82  484O :  3.81  706O :  3.76  259O :  3.68    1O :  3.68   94O :  3.61  475O :  3.59  433O :  3.55  748O :  3.51  226O :  3.42
  727O :  3.42  169O :  3.38  106O :  3.35  736O :  3.35  739O :  3.31   10O :  3.23  613O :  3.23  274O :  3.19  175O :  3.19  733O :  3.15  493O :  3.14  730O :  3.13
   25O :  3.09  298O :  3.09  574O :  3.08  235O :  3.00  676O :  2.99  379O :  2.94  214O :  2.91   19O :  2.80  412O :  2.78  691O :  2.77  607O :  2.75  439O :  2.73
  499O :  2.69  241O :  2.69  640O :  2.68  139O :  2.64   79O :  2.61  697O :  2.54  223O :  2.51  343O :  2.48  592O :  2.46  397O :  2.46  496O :  2.46   43O :  2.45
  466O :  2.44  673O :  2.43  295O :  2.39   97O :  2.32  514O :  2.31  105H :  2.31  682O :  2.29  328O :  2.25   90H :  2.23  502O :  2.22  517O :  2.22  355O :  2.20
   37O :  2.20  358O :  2.20  583O :  2.19  256O :  2.18  349O :  2.14   86H :  2.12  580O :  2.12  112O :  2.11  523O :  2.09  220O :  2.08  232O :  2.07   52O :  2.05
  442O :  2.04  109O :  2.04  655O :  2.02  436O :  2.00  160O :  2.00  277O :  1.96  571O :  1.96  143H :  1.92  325O :  1.90  136O :  1.89  120H :  1.88   13O :  1.86
   49O :  1.84    8H :  1.82  403O :  1.78   58O :  1.77  124O :  1.76  505O :  1.75   91O :  1.73  244O :  1.72  391O :  1.70   21H :  1.68  271O :  1.67  460O :  1.65
   36H :  1.63  122H :  1.62  595O :  1.61  487O :  1.53   68H :  1.49  205O :  1.49  133O :  1.48  718O :  1.48  679O :  1.47  154O :  1.47  346O :  1.47  550O :  1.47
  712O :  1.42  382O :  1.39  688O :  1.33  457O :  1.33   63H :  1.32   57H :  1.31  388O :  1.30   80H :  1.26  333H :  1.24  604O :  1.24  174H :  1.23  490O :  1.21
  620H :  1.20  151O :  1.20    4O :  1.20  586O :  1.17  188H :  1.16  694O :  1.16  621H :  1.14  247O :  1.09  566H :  1.08  687H :  1.05  511O :  1.04  132H :  1.04
  374H :  1.03  662H :  1.03   11H :  1.01  131H :  1.01  290H :  1.01  430O :  0.98   72H :  0.97  521H :  0.95  253O :  0.94  753H :  0.92  159H :  0.92  164H :  0.91
  578H :  0.90  608H :  0.90  368H :  0.89  264H :  0.88  474H :  0.87  553O :  0.85  414H :  0.83  353H :  0.82  149H :  0.81   29H :  0.80  638H :  0.80  678H :  0.78
  634O :  0.78  665H :  0.78  755H :  0.77  715O :  0.76  524H :  0.75  338H :  0.74  313O :  0.74  377H :  0.73  191H :  0.71  435H :  0.71  267H :  0.70  332H :  0.69
  111H :  0.68  562O :  0.67  248H :  0.67  281H :  0.67   26H :  0.67   65H :  0.67  405H :  0.66  725H :  0.66   78H :  0.65  342H :  0.65  544O :  0.63  270H :  0.63
  700O :  0.63  424O :  0.62    2H :  0.62  618H :  0.62  189H :  0.62  354H :  0.62  360H :  0.60  237H :  0.60  408H :  0.60  519H :  0.59  672H :  0.58  738H :  0.58
  529O :  0.57   32H :  0.57  539H :  0.56  365H :  0.56  549H :  0.55  533H :  0.55   93H :  0.55  693H :  0.55  464H :  0.55  161H :  0.54  476H :  0.54  609H :  0.53
  210H :  0.53   17H :  0.53  329H :  0.52  628O :  0.51   45H :  0.50  273H :  0.50  127O :  0.50   74H :  0.50  653H :  0.47  500H :  0.47  215H :  0.47  735H :  0.47
  642H :  0.46  134H :  0.44  302H :  0.44  318H :  0.44  309H :  0.44  737H :  0.44  479H :  0.44  278H :  0.42  291H :  0.41  614H :  0.41  221H :  0.40  594H :  0.40
  276H :  0.39  422H :  0.39  140H :  0.38  506H :  0.38   33H :  0.38  101H :  0.37  233H :  0.37  209H :  0.37  216H :  0.36  242H :  0.36  633H :  0.35  113H :  0.35
  534H :  0.35  402H :  0.34   14H :  0.34  306H :  0.34  394O :  0.34  731H :  0.34  195H :  0.33  324H :  0.33  413H :  0.33   53H :  0.33  286O :  0.33  462H :  0.33
  293H :  0.32   22O :  0.32   96H :  0.31  720H :  0.31  361O :  0.31  671H :  0.31  171H :  0.31  601O :  0.30  576H :  0.30  593H :  0.30  224H :  0.30  386H :  0.30
  440H :  0.29  384H :  0.29  623H :  0.29  728H :  0.29  684H :  0.28   98H :  0.28   60H :  0.28  194H :  0.27  660H :  0.27  643O :  0.26  458H :  0.26  686H :  0.26
  449H :  0.26  255H :  0.26  446H :  0.26  711H :  0.25  294H :  0.25  395H :  0.25  198H :  0.25  147H :  0.25  284H :  0.24  407H :  0.24  178O :  0.24  600H :  0.24
  317H :  0.24  629H :  0.24  200H :  0.24  582H :  0.24  392H :  0.23  437H :  0.23  410H :  0.23  423H :  0.23  509H :  0.23  239H :  0.23  263H :  0.23  344H :  0.23
   75H :  0.23  674H :  0.22  261H :  0.22  591H :  0.22  138H :  0.22  176H :  0.22   27H :  0.22    9H :  0.21  477H :  0.21  482H :  0.21  432H :  0.21  119H :  0.21
  746H :  0.20  272H :  0.20  639H :  0.20   62H :  0.20  185H :  0.20   56H :  0.20   18H :  0.20  443H :  0.20  285H :  0.20   66H :  0.19  572H :  0.19  192H :  0.19
   50H :  0.19  125H :  0.19  743H :  0.19  596H :  0.18  444H :  0.18  104H :  0.18  690H :  0.17  197H :  0.17  207H :  0.17  183H :  0.16  404H :  0.16  716H :  0.16
  615H :  0.16  398H :  0.16  438H :  0.16  722H :  0.16  647H :  0.16  567H :  0.15  249H :  0.15  579H :  0.15  558H :  0.15  527H :  0.15  456H :  0.15  749H :  0.14
  744H :  0.14  626H :  0.14  723H :  0.14  420H :  0.14  326H :  0.13  535O :  0.13  666H :  0.13  375H :  0.13  441H :  0.13  668H :  0.13  341H :  0.13  540H :  0.13
  254H :  0.12  335H :  0.12  750H :  0.12  483H :  0.12  588H :  0.12  560H :  0.12   87H :  0.12  536H :  0.12  350H :  0.11  707H :  0.11  624H :  0.11  605H :  0.11
   81H :  0.11  522H :  0.10  378H :  0.10  681H :  0.10  266H :  0.10  137H :  0.10  752H :  0.10  107H :  0.10  359H :  0.10  296H :  0.10  704H :  0.10  243H :  0.10
   23H :  0.09  345H :  0.09   38H :  0.09  275H :  0.09   42H :  0.09  518H :  0.09    5H :  0.09    6H :  0.09  486H :  0.09  455H :  0.08  321H :  0.08  659H :  0.08
  312H :  0.08  590H :  0.08  393H :  0.08  497H :  0.08  641H :  0.08  597H :  0.08  485H :  0.08   12H :  0.08  380H :  0.08  492H :  0.08  677H :  0.08  128H :  0.07
  222H :  0.07  585H :  0.07  348H :  0.07  213H :  0.07  465H :  0.07  525H :  0.07   39H :  0.07  257H :  0.07
    2 LP   *******   0.00  64.60478  29.07340  34.64782  565O : 21.86  685O : 20.85  196O : 20.69  187O : 17.11   88O : 14.88  619O : 14.74    7O : 14.73  454O : 14.69  331O : 14.53  292O : 14.38  307O : 14.18  304O : 13.51
  289O : 13.12  445O : 12.97  520O : 11.65  130O : 11.47  625O : 11.29  337O : 11.16  142O : 11.03  646O : 10.71  577O : 10.57   85O : 10.44  103O : 10.37   82O : 10.26
   34O :  9.77  541O :  9.65  400O :  9.56  229O :  9.19   55O :  9.17  373O :  9.12  745O :  9.11  265O :  8.85  163O :  8.76  352O :  8.28   61O :  8.28   76O :  8.21
  664O :  8.16  370O :  8.06  742O :  7.95  367O :  7.75  568O :  7.71   28O :  7.68  172O :  7.66  427O :  7.56  181O :  7.54   16O :  7.47  217O :  7.16  724O :  7.16
  469O :  7.03  238O :  7.02  184O :  7.01  115O :  6.88  670O :  6.83  598O :  6.63  262O :  6.60   67O :  6.39  616O :  6.39  193O :  6.17  322O :  6.11  118O :  6.07
  208O :  6.01  202O :  5.90  268O :  5.89   31O :  5.84  319O :  5.77  667O :  5.77  532O :  5.76  709O :  5.74  559O :  5.69  472O :  5.68  610O :  5.68  547O :  5.51
  703O :  5.50  199O :  5.49  418O :  5.48  157O :  5.40  463O :  5.38  166O :  5.02  751O :  5.02  637O :  5.00  556O :  4.97   64O :  4.91  364O :  4.86  310O :  4.81
  409O :  4.79  658O :  4.77  661O :  4.72  145O :  4.59  415O :  4.52  316O :  4.44  121O :  4.39  190O :  4.23  652O :  4.21   70O :  4.20  301O :  4.19  421O :  4.16
  526O :  4.16  481O :  4.13  406O :  4.08  148O :  4.06  385O :  4.06  283O :  3.94  631O :  3.90  508O :  3.87  649O :  3.86  721O :  3.84  538O :  3.82  340O :  3.78
  334O :  3.77  211O :  3.75  478O :  3.71  589O :  3.65  376O :  3.64  622O :  3.63  100O :  3.49   40O :  3.48   46O :  3.47  250O :  3.46   73O :  3.44  448O :  3.42
  754O :  3.34  451O :  3.33  280O :  3.30  484O :  3.29  706O :  3.25  259O :  3.19    1O :  3.18   94O :  3.12  475O :  3.11  433O :  3.07  748O :  3.04  727O :  2.96
  226O :  2.96  169O :  2.92  106O :  2.90  736O :  2.89  739O :  2.86   10O :  2.80  613O :  2.79  274O :  2.76  175O :  2.76  733O :  2.72  493O :  2.71  730O :  2.70
   25O :  2.68  298O :  2.67  574O :  2.66  235O :  2.59  676O :  2.58  379O :  2.54  214O :  2.51   19O :  2.42  412O :  2.41  691O :  2.40  607O :  2.38  439O :  2.36
  499O :  2.33  241O :  2.33  640O :  2.32  139O :  2.29   79O :  2.26  697O :  2.20  223O :  2.17  343O :  2.14  592O :  2.13  397O :  2.13  496O :  2.13   43O :  2.12
  466O :  2.11  673O :  2.10  295O :  2.07   97O :  2.01  682O :  2.00  105H :  2.00  514O :  1.97  328O :  1.95   90H :  1.93  502O :  1.92  517O :  1.92  355O :  1.90
  358O :  1.90   37O :  1.90  583O :  1.90  256O :  1.88  349O :  1.85   86H :  1.83  580O :  1.83  112O :  1.83  523O :  1.81  220O :  1.80  232O :  1.79   52O :  1.77
  442O :  1.76  109O :  1.76  655O :  1.74  436O :  1.73  160O :  1.73  277O :  1.70  571O :  1.69  143H :  1.66  325O :  1.65  136O :  1.63  120H :  1.62   13O :  1.60
   49O :  1.59    8H :  1.57  403O :  1.54   58O :  1.53  124O :  1.52  505O :  1.51   91O :  1.49  244O :  1.49  391O :  1.47   21H :  1.45  271O :  1.44  460O :  1.43
   36H :  1.41  122H :  1.40  595O :  1.39  487O :  1.32   68H :  1.29  205O :  1.29  133O :  1.28  718O :  1.28  679O :  1.28  154O :  1.28  346O :  1.27  550O :  1.27
  712O :  1.22  382O :  1.20  688O :  1.15  457O :  1.15   63H :  1.14   57H :  1.13  388O :  1.13   80H :  1.09  333H :  1.08  604O :  1.07  174H :  1.06  490O :  1.04
  620H :  1.04  151O :  1.04    4O :  1.03  586O :  1.01  188H :  1.00  694O :  1.00  621H :  0.99  247O :  0.95  566H :  0.93  511O :  0.90  132H :  0.90  374H :  0.89
  662H :  0.89   11H :  0.87  131H :  0.87  290H :  0.87  430O :  0.85  687H :  0.84   72H :  0.84  253O :  0.81  753H :  0.80  521H :  0.79  164H :  0.79  159H :  0.78
  578H :  0.78  608H :  0.78  368H :  0.77  264H :  0.76  474H :  0.75  553O :  0.73  414H :  0.72  353H :  0.71  149H :  0.70   29H :  0.69  638H :  0.69  678H :  0.68
  634O :  0.68  665H :  0.67  755H :  0.67  715O :  0.66  524H :  0.65  338H :  0.64  313O :  0.64  377H :  0.63  191H :  0.62  435H :  0.61  267H :  0.61  332H :  0.59
  111H :  0.58  562O :  0.58  248H :  0.58  281H :  0.58   26H :  0.58   65H :  0.58  405H :  0.57  725H :  0.57   78H :  0.56  342H :  0.55  544O :  0.55  700O :  0.54
  270H :  0.54  424O :  0.54    2H :  0.54  618H :  0.54  189H :  0.53  354H :  0.53  360H :  0.52  237H :  0.52  408H :  0.52  519H :  0.51  672H :  0.50  738H :  0.50
  529O :  0.50   32H :  0.49  539H :  0.49  365H :  0.48  549H :  0.48  533H :  0.47   93H :  0.47  693H :  0.47  464H :  0.47  161H :  0.47  476H :  0.47  609H :  0.46
  210H :  0.46   17H :  0.46  329H :  0.45  628O :  0.44   45H :  0.44  273H :  0.44   74H :  0.43  127O :  0.43  653H :  0.41  500H :  0.41  215H :  0.41  735H :  0.41
  642H :  0.40  479H :  0.39  134H :  0.38  302H :  0.38  318H :  0.38  309H :  0.38  737H :  0.38  278H :  0.36  614H :  0.35  291H :  0.35  221H :  0.35  594H :  0.35
  276H :  0.34  422H :  0.34  140H :  0.33  506H :  0.33   33H :  0.33  101H :  0.32  233H :  0.32  209H :  0.32  216H :  0.31  242H :  0.31  633H :  0.31  113H :  0.31
  534H :  0.30  402H :  0.30   14H :  0.30  306H :  0.29  731H :  0.29  394O :  0.29  195H :  0.29  324H :  0.29  413H :  0.29   53H :  0.29  286O :  0.29  462H :  0.28
  293H :  0.28   22O :  0.28  601O :  0.27   96H :  0.27  720H :  0.27  361O :  0.27  671H :  0.27  171H :  0.27  576H :  0.26  593H :  0.26  224H :  0.26  386H :  0.26
  440H :  0.25  384H :  0.25  623H :  0.25  684H :  0.25  728H :  0.25  198H :  0.25   98H :  0.24   60H :  0.24  194H :  0.24  660H :  0.23  643O :  0.23  458H :  0.23
  449H :  0.22  255H :  0.22  446H :  0.22  711H :  0.22  294H :  0.22  395H :  0.22  147H :  0.21  284H :  0.21  407H :  0.21  178O :  0.21  600H :  0.21  317H :  0.21
  629H :  0.21  200H :  0.21  582H :  0.21  392H :  0.20  437H :  0.20  423H :  0.20  509H :  0.20  239H :  0.20  263H :  0.20  344H :  0.20  410H :  0.20   75H :  0.19
  674H :  0.19  261H :  0.19  197H :  0.19  686H :  0.19  591H :  0.19  138H :  0.19  176H :  0.19   27H :  0.19    9H :  0.18  477H :  0.18  432H :  0.18  746H :  0.18
  119H :  0.18  272H :  0.18  639H :  0.18  185H :  0.18   62H :  0.18   56H :  0.17   18H :  0.17  443H :  0.17  285H :  0.17   66H :  0.17  572H :  0.16  192H :  0.16
   50H :  0.16  125H :  0.16  743H :  0.16  596H :  0.16  444H :  0.16  104H :  0.15  690H :  0.15  207H :  0.15  183H :  0.14  404H :  0.14  716H :  0.14  615H :  0.14
  398H :  0.14  438H :  0.14  722H :  0.14  647H :  0.13  567H :  0.13  249H :  0.13  579H :  0.13  558H :  0.13  527H :  0.13  456H :  0.13  749H :  0.12  744H :  0.12
  626H :  0.12  723H :  0.12  420H :  0.12  326H :  0.12  535O :  0.11  666H :  0.11  441H :  0.11  375H :  0.11  668H :  0.11  341H :  0.11  540H :  0.11  254H :  0.11
  335H :  0.11  483H :  0.10  750H :  0.10  588H :  0.10  560H :  0.10   87H :  0.10  536H :  0.10  350H :  0.10  707H :  0.10  482H :  0.10  522H :  0.09  624H :  0.09
  605H :  0.09   81H :  0.09  681H :  0.09  266H :  0.09  378H :  0.09  137H :  0.09  752H :  0.09  107H :  0.09  359H :  0.09  296H :  0.09  704H :  0.09  243H :  0.08
   23H :  0.08  345H :  0.08   38H :  0.08  275H :  0.08   42H :  0.08  518H :  0.08    5H :  0.08    6H :  0.08  486H :  0.07  455H :  0.07  659H :  0.07
    3 LP   *******   0.00  -7.44990  42.95892   9.35784  565O : 21.60  196O : 20.44  292O : 17.44  187O : 16.90  685O : 16.29   88O : 14.70  619O : 14.57    7O : 14.56  454O : 14.51  331O : 14.36  307O : 14.01  304O : 13.34
  289O : 12.96  445O : 12.81  520O : 11.45  130O : 11.33  625O : 11.16  337O : 11.03  142O : 10.90  646O : 10.59  577O : 10.44   85O : 10.31  103O : 10.25   82O : 10.13
   34O :  9.65  541O :  9.54  400O :  9.44  229O :  9.08   55O :  9.06  373O :  9.01  745O :  8.96  265O :  8.74  163O :  8.65  352O :  8.18   61O :  8.18   76O :  8.11
  664O :  8.06  370O :  7.96  742O :  7.85  367O :  7.66  568O :  7.62   28O :  7.59  172O :  7.57  427O :  7.47  181O :  7.45   16O :  7.38  724O :  7.07  217O :  7.07
  469O :  6.95  238O :  6.93  184O :  6.92  115O :  6.80  670O :  6.75  598O :  6.55  262O :  6.52   67O :  6.32  616O :  6.32  193O :  6.09  322O :  6.04  118O :  6.00
  208O :  5.94  202O :  5.83  268O :  5.82   31O :  5.77  319O :  5.74  667O :  5.70  532O :  5.69  709O :  5.68  559O :  5.62  472O :  5.61  610O :  5.61  547O :  5.44
  703O :  5.43  199O :  5.42  418O :  5.41  157O :  5.34  463O :  5.32  166O :  4.96  751O :  4.96  637O :  4.94  556O :  4.91   64O :  4.85  364O :  4.79  310O :  4.75
  409O :  4.73  658O :  4.71  661O :  4.66  145O :  4.53  415O :  4.47  316O :  4.39  121O :  4.34  190O :  4.18  652O :  4.16   70O :  4.15  301O :  4.14  421O :  4.11
  526O :  4.11  481O :  4.09  406O :  4.03  148O :  4.01  385O :  4.01  283O :  3.89  631O :  3.86  508O :  3.82  340O :  3.82  649O :  3.81  721O :  3.80  538O :  3.77
  334O :  3.73  211O :  3.70  478O :  3.67  589O :  3.60  376O :  3.59  622O :  3.59  100O :  3.45   40O :  3.44   46O :  3.43  250O :  3.42   73O :  3.40  448O :  3.38
  754O :  3.30  451O :  3.29  280O :  3.26  484O :  3.25  706O :  3.21  259O :  3.15    1O :  3.14   94O :  3.08  475O :  3.07  433O :  3.04  748O :  3.00  727O :  2.92
  226O :  2.92  169O :  2.89  106O :  2.87  736O :  2.86  739O :  2.83  613O :  2.75   10O :  2.75  274O :  2.73  175O :  2.73  733O :  2.69  493O :  2.68  730O :  2.67
   25O :  2.65  298O :  2.64  574O :  2.63  235O :  2.56  676O :  2.55  379O :  2.51  214O :  2.48   19O :  2.39  412O :  2.38  691O :  2.37  607O :  2.35  439O :  2.34
  499O :  2.30  241O :  2.30  640O :  2.29  139O :  2.26   79O :  2.23  697O :  2.17  223O :  2.14  343O :  2.11  592O :  2.10  397O :  2.10  496O :  2.10   43O :  2.10
  466O :  2.08  673O :  2.07   97O :  1.99  514O :  1.98  295O :  1.98  105H :  1.97  682O :  1.95  328O :  1.93   90H :  1.90  502O :  1.89  517O :  1.89  355O :  1.88
  358O :  1.88   37O :  1.88  583O :  1.87  256O :  1.86  349O :  1.83  112O :  1.82   86H :  1.81  580O :  1.81  523O :  1.79  220O :  1.78  232O :  1.77   52O :  1.75
  442O :  1.74  109O :  1.74  655O :  1.72  436O :  1.71  160O :  1.71  277O :  1.68  571O :  1.67  143H :  1.64  325O :  1.63  136O :  1.61  120H :  1.60   13O :  1.58
   49O :  1.57    8H :  1.55  403O :  1.52   58O :  1.51  124O :  1.50  244O :  1.50  505O :  1.49   91O :  1.48  391O :  1.46   21H :  1.44  271O :  1.42  460O :  1.41
   36H :  1.39  122H :  1.38  595O :  1.37  487O :  1.31   68H :  1.27  205O :  1.27  133O :  1.27  718O :  1.27  679O :  1.26  154O :  1.26  346O :  1.26  550O :  1.25
  712O :  1.21  382O :  1.19  688O :  1.14  457O :  1.14   63H :  1.13   57H :  1.12  388O :  1.11   80H :  1.08  333H :  1.06  604O :  1.06  490O :  1.05  174H :  1.05
  620H :  1.03  151O :  1.02    4O :  1.02  586O :  1.00  188H :  0.99  694O :  0.99  621H :  0.98  566H :  0.92  247O :  0.92  687H :  0.90  511O :  0.89  132H :  0.89
  374H :  0.88  662H :  0.88   11H :  0.86  131H :  0.86  290H :  0.86  430O :  0.84   72H :  0.83  521H :  0.81  253O :  0.80  159H :  0.79  753H :  0.79  164H :  0.78
  578H :  0.77  608H :  0.77  368H :  0.76  264H :  0.75  474H :  0.74  553O :  0.73  414H :  0.71  353H :  0.70  149H :  0.69   29H :  0.68  638H :  0.68  678H :  0.67
  634O :  0.67  665H :  0.66  755H :  0.66  715O :  0.65  524H :  0.64  338H :  0.64  313O :  0.63  377H :  0.62  191H :  0.61  435H :  0.61  267H :  0.60  332H :  0.59
  111H :  0.58  248H :  0.58  562O :  0.58  281H :  0.57   26H :  0.57   65H :  0.57  405H :  0.57  725H :  0.56   78H :  0.56  342H :  0.55  544O :  0.54  700O :  0.53
  270H :  0.53  424O :  0.53    2H :  0.53  618H :  0.53  189H :  0.53  354H :  0.53  360H :  0.51  237H :  0.51  408H :  0.51  519H :  0.50  672H :  0.50  738H :  0.49
  529O :  0.49   32H :  0.49  539H :  0.48  365H :  0.48  549H :  0.47  533H :  0.47   93H :  0.47  693H :  0.47  464H :  0.47  161H :  0.46  476H :  0.46  609H :  0.46
  210H :  0.46   17H :  0.45  329H :  0.45  628O :  0.44   45H :  0.43  273H :  0.43   74H :  0.43  127O :  0.43  653H :  0.40  500H :  0.40  215H :  0.40  735H :  0.40
  642H :  0.39  479H :  0.38  134H :  0.38  302H :  0.38  318H :  0.38  309H :  0.37  737H :  0.37  278H :  0.36  291H :  0.35  614H :  0.35  221H :  0.34  594H :  0.34
  276H :  0.33  422H :  0.33  140H :  0.33  506H :  0.33   33H :  0.32  101H :  0.32  233H :  0.32  209H :  0.31  216H :  0.31  242H :  0.31  633H :  0.30  113H :  0.30
  534H :  0.30  402H :  0.29   14H :  0.29  306H :  0.29  731H :  0.29  394O :  0.29  195H :  0.29  324H :  0.28  413H :  0.28   53H :  0.28  286O :  0.28  462H :  0.28
   22O :  0.27  601O :  0.27   96H :  0.27  720H :  0.27  361O :  0.26  671H :  0.26  171H :  0.26  576H :  0.26  593H :  0.26  224H :  0.25  386H :  0.25  440H :  0.25
  384H :  0.25  623H :  0.25  728H :  0.25  198H :  0.24  684H :  0.24   98H :  0.24   60H :  0.24  194H :  0.23  660H :  0.23  643O :  0.22  458H :  0.22  686H :  0.22
  449H :  0.22  255H :  0.22  446H :  0.22  711H :  0.22  293H :  0.22  395H :  0.22  147H :  0.21  284H :  0.21  407H :  0.21  178O :  0.21  600H :  0.21  317H :  0.21
  629H :  0.21  200H :  0.20  582H :  0.20  392H :  0.20  437H :  0.20  423H :  0.20  509H :  0.20  239H :  0.20  263H :  0.19  344H :  0.19  410H :  0.19   75H :  0.19
  674H :  0.19  261H :  0.19  197H :  0.19  591H :  0.19  138H :  0.19  176H :  0.18   27H :  0.18    9H :  0.18  477H :  0.18  432H :  0.18  119H :  0.18  272H :  0.17
  746H :  0.17  639H :  0.17  185H :  0.17   62H :  0.17   56H :  0.17   18H :  0.17  443H :  0.17  285H :  0.17   66H :  0.17  572H :  0.16  192H :  0.16   50H :  0.16
  743H :  0.16  125H :  0.16  294H :  0.16  596H :  0.15  444H :  0.15  104H :  0.15  690H :  0.15  207H :  0.14  183H :  0.14  404H :  0.14  615H :  0.14  716H :  0.14
  398H :  0.14  438H :  0.14  722H :  0.13  647H :  0.13  567H :  0.13  579H :  0.13  558H :  0.13  249H :  0.13  527H :  0.13  456H :  0.12  749H :  0.12  744H :  0.12
  626H :  0.12  723H :  0.12  420H :  0.12  326H :  0.11  535O :  0.11  666H :  0.11  375H :  0.11  441H :  0.11  668H :  0.11  341H :  0.11  540H :  0.11  254H :  0.11
  335H :  0.10  483H :  0.10  750H :  0.10  588H :  0.10  560H :  0.10   87H :  0.10  536H :  0.10  350H :  0.10  707H :  0.10  482H :  0.09  624H :  0.09  605H :  0.09
   81H :  0.09  522H :  0.09  378H :  0.09  681H :  0.09  266H :  0.09  137H :  0.09  752H :  0.09  107H :  0.09  359H :  0.09  704H :  0.08  296H :  0.08  243H :  0.08
   23H :  0.08  345H :  0.08   38H :  0.08  275H :  0.08   42H :  0.08  518H :  0.08    5H :  0.08    6H :  0.07  486H :  0.07  455H :  0.07  321H :  0.07  659H :  0.07
    4 LP   *******   0.00  37.97314 -48.54144  18.64849  565O : 20.60  196O : 19.50  619O : 17.84  187O : 16.12  685O : 15.53   88O : 14.03    7O : 13.89  454O : 13.84  331O : 13.69  292O : 13.55  307O : 13.23  304O : 12.73
  289O : 12.36  445O : 12.22  520O : 10.92  130O : 10.81  625O : 10.64  337O : 10.52  142O : 10.40  646O : 10.10  577O :  9.96   85O :  9.83  103O :  9.77   82O :  9.66
   34O :  9.21  541O :  9.10  400O :  9.00  229O :  8.66   55O :  8.65  373O :  8.60  745O :  8.54  265O :  8.34  163O :  8.25  352O :  7.80   61O :  7.80   76O :  7.74
  664O :  7.68  370O :  7.59  742O :  7.48  367O :  7.31  568O :  7.26   28O :  7.24  172O :  7.22  427O :  7.12  181O :  7.11   16O :  7.04  724O :  6.75  217O :  6.74
  469O :  6.63  238O :  6.61  184O :  6.60  115O :  6.48  670O :  6.44  598O :  6.25  262O :  6.22  616O :  6.02   67O :  6.02  193O :  5.81  322O :  5.76  118O :  5.72
  208O :  5.66  202O :  5.56  268O :  5.55   31O :  5.50  319O :  5.47  667O :  5.44  532O :  5.43  709O :  5.41  559O :  5.36  472O :  5.36  610O :  5.35  547O :  5.19
  703O :  5.18  199O :  5.17  418O :  5.16  157O :  5.09  463O :  5.07  166O :  4.73  751O :  4.73  637O :  4.71  556O :  4.68   64O :  4.62  364O :  4.57  310O :  4.53
  409O :  4.51  658O :  4.50  661O :  4.44  145O :  4.32  415O :  4.26  316O :  4.18  121O :  4.14  190O :  3.99  652O :  3.96   70O :  3.96  301O :  3.94  421O :  3.92
  526O :  3.91  481O :  3.90  406O :  3.85  148O :  3.83  385O :  3.83  283O :  3.71  631O :  3.68  508O :  3.65  340O :  3.64  649O :  3.64  721O :  3.62  538O :  3.59
  334O :  3.56  211O :  3.53  478O :  3.50  589O :  3.44  376O :  3.43  622O :  3.42  100O :  3.29   40O :  3.28   46O :  3.27  250O :  3.26   73O :  3.25  448O :  3.22
  754O :  3.15  451O :  3.14  280O :  3.12  484O :  3.10  706O :  3.06    1O :  3.03  259O :  3.00   94O :  2.94  475O :  2.93  433O :  2.90  748O :  2.87  727O :  2.79
  226O :  2.79  169O :  2.77  106O :  2.73  736O :  2.73  739O :  2.70  274O :  2.64   10O :  2.64  613O :  2.63  175O :  2.60  733O :  2.56  493O :  2.56  730O :  2.55
   25O :  2.52  298O :  2.51  574O :  2.51  235O :  2.44  676O :  2.43  379O :  2.40  214O :  2.37   19O :  2.29  412O :  2.27  691O :  2.26  607O :  2.24  439O :  2.23
  499O :  2.20  241O :  2.19  640O :  2.18  139O :  2.16   79O :  2.13  697O :  2.07  223O :  2.04  343O :  2.02  592O :  2.01  397O :  2.00  496O :  2.00   43O :  2.00
  466O :  1.98  673O :  1.98  295O :  1.95   97O :  1.89  514O :  1.89  105H :  1.88  682O :  1.86  328O :  1.84   90H :  1.82  517O :  1.81  502O :  1.80  358O :  1.79
  355O :  1.79   37O :  1.79  583O :  1.79  256O :  1.77  349O :  1.75   86H :  1.73  580O :  1.72  112O :  1.72  523O :  1.71  220O :  1.70  232O :  1.68   52O :  1.67
  442O :  1.66  109O :  1.66  655O :  1.64  436O :  1.63  160O :  1.63  277O :  1.60  571O :  1.60  143H :  1.56  325O :  1.55  136O :  1.54  120H :  1.53   13O :  1.51
   49O :  1.50    8H :  1.48  403O :  1.45   58O :  1.44  124O :  1.43  505O :  1.42   91O :  1.41  244O :  1.40  391O :  1.39   21H :  1.37  271O :  1.36  460O :  1.35
   36H :  1.33  122H :  1.32  595O :  1.31  487O :  1.25   68H :  1.21  205O :  1.21  133O :  1.21  718O :  1.21  679O :  1.20  154O :  1.20  346O :  1.20  550O :  1.20
  712O :  1.15  382O :  1.13  688O :  1.09  457O :  1.08   63H :  1.08   57H :  1.07  388O :  1.06   80H :  1.03  333H :  1.01  604O :  1.01  174H :  1.00  151O :  0.99
  490O :  0.98    4O :  0.97  586O :  0.96  188H :  0.95  694O :  0.94  247O :  0.89  566H :  0.88  620H :  0.87  687H :  0.86  511O :  0.85  132H :  0.85  374H :  0.84
  662H :  0.84   11H :  0.82  131H :  0.82  290H :  0.82  621H :  0.81  430O :  0.80   72H :  0.79  521H :  0.77  253O :  0.77  159H :  0.75  753H :  0.75  164H :  0.74
  578H :  0.74  608H :  0.73  368H :  0.73  264H :  0.72  474H :  0.71  553O :  0.69  414H :  0.68  353H :  0.67  149H :  0.66   29H :  0.65  638H :  0.65  678H :  0.64
  634O :  0.64  665H :  0.63  755H :  0.63  715O :  0.62  524H :  0.61  338H :  0.61  313O :  0.60  377H :  0.60  191H :  0.58  435H :  0.58  267H :  0.57  332H :  0.56
  111H :  0.55  562O :  0.55  248H :  0.55  281H :  0.55   26H :  0.55   65H :  0.54  405H :  0.54  725H :  0.54   78H :  0.53  342H :  0.53  544O :  0.52  700O :  0.51
  270H :  0.51  424O :  0.51  618H :  0.50  189H :  0.50  354H :  0.50  360H :  0.49  237H :  0.49  408H :  0.49  519H :  0.48  672H :  0.47  738H :  0.47  529O :  0.47
   32H :  0.46  539H :  0.46  365H :  0.45  549H :  0.45  533H :  0.45   93H :  0.45  693H :  0.44  464H :  0.44  161H :  0.44  476H :  0.44    2H :  0.44  609H :  0.44
  210H :  0.43   17H :  0.43  329H :  0.43  628O :  0.42   45H :  0.41  273H :  0.41   74H :  0.41  127O :  0.41  653H :  0.39  500H :  0.38  215H :  0.38  735H :  0.38
  642H :  0.37  479H :  0.36  171H :  0.36  134H :  0.36  302H :  0.36  318H :  0.36  737H :  0.36  278H :  0.34  309H :  0.34  614H :  0.33  291H :  0.33  221H :  0.33
  594H :  0.33  276H :  0.32  422H :  0.32  140H :  0.31  506H :  0.31   33H :  0.31  233H :  0.30  101H :  0.30  209H :  0.30  216H :  0.30  242H :  0.29  633H :  0.29
  113H :  0.29  534H :  0.28  402H :  0.28   14H :  0.28  306H :  0.28  731H :  0.27  394O :  0.27  195H :  0.27  324H :  0.27  413H :  0.27   53H :  0.27  286O :  0.27
  462H :  0.26  293H :  0.26   22O :  0.26  601O :  0.26   96H :  0.26  720H :  0.25  361O :  0.25  671H :  0.25  576H :  0.25  593H :  0.24  386H :  0.24  224H :  0.24
  440H :  0.24  384H :  0.24  623H :  0.24  728H :  0.24  198H :  0.23  684H :  0.23   98H :  0.23   60H :  0.23  194H :  0.22  660H :  0.22  643O :  0.21  458H :  0.21
  686H :  0.21  449H :  0.21  255H :  0.21  446H :  0.21  711H :  0.21  294H :  0.21  395H :  0.21  147H :  0.20  284H :  0.20  407H :  0.20  178O :  0.20  600H :  0.20
  317H :  0.20  629H :  0.20  200H :  0.19  582H :  0.19  392H :  0.19  437H :  0.19  423H :  0.19  509H :  0.19  239H :  0.19  263H :  0.19  344H :  0.18  410H :  0.18
   75H :  0.18  674H :  0.18  261H :  0.18  197H :  0.18  591H :  0.18   27H :  0.18  138H :  0.18  176H :  0.18    9H :  0.17  477H :  0.17  432H :  0.17  119H :  0.17
  272H :  0.17  746H :  0.17  639H :  0.17  185H :  0.17   62H :  0.17   56H :  0.16   18H :  0.16  443H :  0.16  285H :  0.16   66H :  0.16  572H :  0.15  192H :  0.15
   50H :  0.15  743H :  0.15  125H :  0.15  596H :  0.15  444H :  0.15  104H :  0.14  690H :  0.14  207H :  0.14  183H :  0.13  404H :  0.13  716H :  0.13  615H :  0.13
  398H :  0.13  438H :  0.13  722H :  0.13  647H :  0.13  567H :  0.12  249H :  0.12  579H :  0.12  558H :  0.12  527H :  0.12  456H :  0.12  749H :  0.12  744H :  0.12
  626H :  0.11  723H :  0.11  420H :  0.11  326H :  0.11  535O :  0.11  666H :  0.11  375H :  0.10  441H :  0.10  668H :  0.10  341H :  0.10  540H :  0.10  254H :  0.10
  335H :  0.10  750H :  0.10  483H :  0.10  588H :  0.10  560H :  0.10   87H :  0.09  536H :  0.09  350H :  0.09  707H :  0.09  482H :  0.09  624H :  0.09  605H :  0.09
   81H :  0.09  522H :  0.09  378H :  0.08  681H :  0.08  266H :  0.08  137H :  0.08  752H :  0.08  107H :  0.08  359H :  0.08  296H :  0.08  704H :  0.08  243H :  0.08
  275H :  0.08   23H :  0.08  345H :  0.08   38H :  0.07   42H :  0.07  518H :  0.07    5H :  0.07    6H :  0.07  486H :  0.07
    5 LP   *******   0.00  14.84989 -41.53378  60.41845  565O : 20.47  196O : 19.37  331O : 16.36  187O : 16.02  685O : 15.44   88O : 13.94  619O : 13.81    7O : 13.80  454O : 13.76  292O : 13.46  307O : 13.28  304O : 12.65
  289O : 12.29  445O : 12.15  520O : 10.85  130O : 10.74  625O : 10.58  337O : 10.45  142O : 10.35  646O : 10.03  577O :  9.90   85O :  9.77  103O :  9.72   82O :  9.60
   34O :  9.15  541O :  9.04  400O :  8.95  229O :  8.61   55O :  8.56  373O :  8.54  745O :  8.49  265O :  8.29  163O :  8.20  352O :  7.76   61O :  7.75   76O :  7.69
  664O :  7.64  370O :  7.55  742O :  7.44  367O :  7.26  568O :  7.22   28O :  7.19  172O :  7.18  427O :  7.08  181O :  7.06   16O :  6.99  724O :  6.70  217O :  6.70
  469O :  6.58  238O :  6.57  184O :  6.56  115O :  6.43  670O :  6.40  598O :  6.21  262O :  6.18   67O :  5.99  616O :  5.99  193O :  5.77  322O :  5.72  118O :  5.70
  208O :  5.62  202O :  5.53  268O :  5.51   31O :  5.47  319O :  5.44  667O :  5.40  532O :  5.39  709O :  5.38  559O :  5.33  472O :  5.32  610O :  5.32  547O :  5.16
  703O :  5.15  199O :  5.14  418O :  5.13  157O :  5.06  463O :  5.04  166O :  4.70  751O :  4.70  637O :  4.68  556O :  4.66   64O :  4.59  364O :  4.54  310O :  4.51
  409O :  4.48  658O :  4.47  661O :  4.42  145O :  4.30  415O :  4.24  316O :  4.16  121O :  4.11  190O :  3.97  652O :  3.94   70O :  3.93  301O :  3.92  526O :  3.90
  421O :  3.90  481O :  3.87  406O :  3.82  148O :  3.81  385O :  3.80  283O :  3.69  631O :  3.66  508O :  3.62  340O :  3.62  649O :  3.61  721O :  3.60  538O :  3.57
  334O :  3.54  211O :  3.51  478O :  3.47  589O :  3.41  376O :  3.41  622O :  3.40  100O :  3.27   40O :  3.26   46O :  3.25  250O :  3.24   73O :  3.23  448O :  3.20
  754O :  3.13  451O :  3.12  280O :  3.11  484O :  3.08  706O :  3.04  259O :  2.98    1O :  2.98   94O :  2.92  475O :  2.91  433O :  2.88  748O :  2.85  727O :  2.77
  226O :  2.77  169O :  2.74  106O :  2.72  736O :  2.71  739O :  2.68   10O :  2.62  613O :  2.61  175O :  2.59  274O :  2.59  733O :  2.55  493O :  2.54  730O :  2.53
   25O :  2.50  298O :  2.50  574O :  2.49  235O :  2.43  676O :  2.42  379O :  2.38  214O :  2.35   19O :  2.27  412O :  2.25  691O :  2.25  607O :  2.23  439O :  2.21
  499O :  2.18  241O :  2.18  640O :  2.17  139O :  2.14   79O :  2.12  697O :  2.06  223O :  2.03  343O :  2.00  592O :  1.99  397O :  1.99  496O :  1.99   43O :  1.99
  466O :  1.97  673O :  1.97  295O :  1.93   97O :  1.88  514O :  1.87  105H :  1.87  358O :  1.87  682O :  1.85  328O :  1.83   90H :  1.80  502O :  1.80  517O :  1.79
   37O :  1.78  583O :  1.77  355O :  1.77  256O :  1.76  349O :  1.73   86H :  1.72  580O :  1.71  112O :  1.71  523O :  1.69  220O :  1.69  232O :  1.67   52O :  1.66
  442O :  1.65  109O :  1.65  655O :  1.63  436O :  1.62  160O :  1.62  277O :  1.59  571O :  1.59  143H :  1.56  325O :  1.54  136O :  1.53  120H :  1.52   13O :  1.50
   49O :  1.49    8H :  1.47  403O :  1.44   58O :  1.43  124O :  1.43  505O :  1.41   91O :  1.40  244O :  1.39  391O :  1.38   21H :  1.36  271O :  1.35  460O :  1.34
   36H :  1.32  122H :  1.31  595O :  1.30  487O :  1.24   68H :  1.21  205O :  1.20  133O :  1.20  718O :  1.20  679O :  1.19  154O :  1.19  346O :  1.19  550O :  1.19
  712O :  1.15  382O :  1.13  688O :  1.08  457O :  1.08   63H :  1.07   57H :  1.06  388O :  1.06   80H :  1.02  586O :  1.02  604O :  1.00  174H :  0.99  490O :  0.98
  620H :  0.97  151O :  0.97    4O :  0.97  188H :  0.94  694O :  0.94  621H :  0.93  333H :  0.91  247O :  0.89  566H :  0.87  687H :  0.85  511O :  0.84  132H :  0.84
  374H :  0.84  662H :  0.83   11H :  0.82  131H :  0.81  290H :  0.81  430O :  0.79   72H :  0.78  521H :  0.77  253O :  0.76  159H :  0.75  753H :  0.75  164H :  0.74
  578H :  0.73  608H :  0.73  368H :  0.72  264H :  0.71  474H :  0.70  553O :  0.69  414H :  0.68  353H :  0.67  149H :  0.66   29H :  0.65  638H :  0.64  678H :  0.63
  634O :  0.63  665H :  0.63  755H :  0.62  715O :  0.61  524H :  0.61  338H :  0.60  313O :  0.60  377H :  0.59  191H :  0.58  435H :  0.58  267H :  0.57  111H :  0.55
  562O :  0.55  281H :  0.55  248H :  0.55   26H :  0.54   65H :  0.54  405H :  0.54  725H :  0.53   78H :  0.53  342H :  0.52  544O :  0.51  270H :  0.51  700O :  0.51
  424O :  0.50    2H :  0.50  618H :  0.50  189H :  0.50  354H :  0.50  360H :  0.49  237H :  0.49  408H :  0.48  519H :  0.48  332H :  0.48  672H :  0.47  738H :  0.47
  529O :  0.46   32H :  0.46  539H :  0.46  365H :  0.45  549H :  0.45  533H :  0.44   93H :  0.44  693H :  0.44  464H :  0.44  161H :  0.44  476H :  0.44  609H :  0.43
  210H :  0.43   17H :  0.43  329H :  0.42  628O :  0.41   45H :  0.41  273H :  0.41   74H :  0.41  127O :  0.41  653H :  0.38  500H :  0.38  215H :  0.38  735H :  0.38
  642H :  0.37  479H :  0.36  134H :  0.36  302H :  0.36  318H :  0.36  309H :  0.36  737H :  0.35  278H :  0.34  614H :  0.33  291H :  0.33  221H :  0.32  594H :  0.32
  276H :  0.32  422H :  0.31  140H :  0.31  506H :  0.31   33H :  0.30  101H :  0.30  233H :  0.30  209H :  0.30  216H :  0.29  242H :  0.29  633H :  0.29  113H :  0.29
  534H :  0.28  402H :  0.28   14H :  0.28  306H :  0.27  731H :  0.27  394O :  0.27  195H :  0.27  324H :  0.27  413H :  0.27   53H :  0.27  286O :  0.27  462H :  0.26
  293H :  0.26   22O :  0.26  601O :  0.25   96H :  0.25  720H :  0.25  361O :  0.25  671H :  0.25  171H :  0.25  576H :  0.24  593H :  0.24  224H :  0.24  386H :  0.24
  440H :  0.24  384H :  0.24  623H :  0.24  728H :  0.23  198H :  0.23  684H :  0.23   98H :  0.23   60H :  0.23  194H :  0.22  660H :  0.21  643O :  0.21  458H :  0.21
  686H :  0.21  449H :  0.21  255H :  0.21  446H :  0.21  711H :  0.21  294H :  0.21  395H :  0.20  147H :  0.20  284H :  0.20  407H :  0.20  178O :  0.20  600H :  0.20
  317H :  0.20  629H :  0.20  200H :  0.19  582H :  0.19  392H :  0.19  437H :  0.19  423H :  0.19  509H :  0.19  239H :  0.18  263H :  0.18  344H :  0.18  410H :  0.18
   75H :  0.18  674H :  0.18  261H :  0.18  197H :  0.18  591H :  0.18  138H :  0.18  176H :  0.18   27H :  0.17  119H :  0.17    9H :  0.17  477H :  0.17  432H :  0.17
  746H :  0.17  272H :  0.17  639H :  0.16  185H :  0.16   62H :  0.16   56H :  0.16   18H :  0.16  443H :  0.16  285H :  0.16   66H :  0.16  572H :  0.15  192H :  0.15
   50H :  0.15  125H :  0.15  743H :  0.15  596H :  0.15  444H :  0.15  104H :  0.14  690H :  0.14  207H :  0.14  183H :  0.13  404H :  0.13  716H :  0.13  615H :  0.13
  398H :  0.13  438H :  0.13  722H :  0.13  647H :  0.13  567H :  0.12  249H :  0.12  579H :  0.12  558H :  0.12  527H :  0.12  456H :  0.12  749H :  0.12  744H :  0.11
  626H :  0.11  723H :  0.11  420H :  0.11  326H :  0.11  535O :  0.11  666H :  0.10  375H :  0.10  588H :  0.10  441H :  0.10  668H :  0.10  341H :  0.10  540H :  0.10
  254H :  0.10  335H :  0.10  483H :  0.10  750H :  0.10  560H :  0.10   87H :  0.09  536H :  0.09  350H :  0.09  707H :  0.09  482H :  0.09  624H :  0.09  605H :  0.09
   81H :  0.09  522H :  0.08  378H :  0.08  681H :  0.08  266H :  0.08  137H :  0.08  752H :  0.08  107H :  0.08  359H :  0.08  296H :  0.08  704H :  0.08  243H :  0.08
   23H :  0.08  345H :  0.08   38H :  0.07  275H :  0.07   42H :  0.07  518H :  0.07    5H :  0.07    6H :  0.07
    6 LP   *******   0.00  31.59885  -8.57072  23.21702  565O : 20.49  196O : 19.39  187O : 16.37  685O : 15.45   88O : 13.98  619O : 13.82    7O : 13.80  454O : 13.78  331O : 13.61  292O : 13.47  307O : 13.29  304O : 12.66
  289O : 12.29  445O : 12.16  520O : 10.86  130O : 10.75  625O : 10.58  337O : 10.46  142O : 10.34  646O : 10.04  577O :  9.90   85O :  9.78  103O :  9.69   82O :  9.62
   34O :  9.16  541O :  9.05  400O :  8.95  229O :  8.61   55O :  8.59  373O :  8.53  745O :  8.49  265O :  8.29  163O :  8.21  352O :  7.76   61O :  7.76   76O :  7.69
  664O :  7.64  370O :  7.55  742O :  7.44  367O :  7.26  568O :  7.22   28O :  7.20  172O :  7.18  427O :  7.08  181O :  7.07   16O :  7.00  724O :  6.71  217O :  6.71
  469O :  6.59  238O :  6.57  184O :  6.57  115O :  6.45  670O :  6.40  598O :  6.21  262O :  6.18   67O :  5.99  616O :  5.99  193O :  5.77  322O :  5.72  118O :  5.69
  208O :  5.63  202O :  5.53  268O :  5.52   31O :  5.47  319O :  5.44  667O :  5.41  532O :  5.40  709O :  5.38  559O :  5.33  472O :  5.33  610O :  5.32  547O :  5.16
  703O :  5.15  199O :  5.14  418O :  5.14  157O :  5.06  463O :  5.04  751O :  4.71  166O :  4.71  637O :  4.68  556O :  4.66   64O :  4.61  364O :  4.55  310O :  4.51
  409O :  4.48  658O :  4.47  661O :  4.42  145O :  4.30  415O :  4.24  316O :  4.16  121O :  4.11  190O :  3.97  652O :  3.94   70O :  3.93  301O :  3.92  526O :  3.90
  421O :  3.90  481O :  3.87  406O :  3.82  385O :  3.80  148O :  3.76  283O :  3.69  631O :  3.66  508O :  3.62  340O :  3.62  649O :  3.62  721O :  3.60  538O :  3.57
  334O :  3.54  211O :  3.51  478O :  3.48  589O :  3.42  376O :  3.41  622O :  3.41   46O :  3.26   40O :  3.26  250O :  3.24   73O :  3.23  100O :  3.22  448O :  3.20
  754O :  3.12  451O :  3.12  280O :  3.09  484O :  3.09  706O :  3.04  259O :  2.98    1O :  2.98   94O :  2.92  475O :  2.91  433O :  2.88  748O :  2.85  727O :  2.77
  226O :  2.77  169O :  2.74  736O :  2.71  739O :  2.68  106O :  2.66   10O :  2.62  613O :  2.61  175O :  2.59  274O :  2.59  733O :  2.55  493O :  2.54  730O :  2.53
   25O :  2.51  298O :  2.50  574O :  2.49  235O :  2.43  676O :  2.42  379O :  2.39  214O :  2.39   19O :  2.27  412O :  2.25  691O :  2.25  607O :  2.23  439O :  2.22
  499O :  2.18  241O :  2.18  640O :  2.17  139O :  2.14   79O :  2.12  697O :  2.06  223O :  2.03  343O :  2.01  397O :  1.99  592O :  1.99  496O :  1.99   43O :  1.98
  466O :  1.97  673O :  1.97  295O :  1.94   97O :  1.88  514O :  1.87  105H :  1.85  682O :  1.85  328O :  1.83   90H :  1.82  502O :  1.80  517O :  1.80  355O :  1.78
  358O :  1.78   37O :  1.78  583O :  1.78  256O :  1.76  349O :  1.74   86H :  1.72  580O :  1.71  112O :  1.71  523O :  1.70  220O :  1.69  232O :  1.67   52O :  1.66
  442O :  1.65  109O :  1.65  655O :  1.63  436O :  1.62  160O :  1.62  277O :  1.59  571O :  1.59  143H :  1.56  325O :  1.54  136O :  1.53  120H :  1.52   13O :  1.50
   49O :  1.49    8H :  1.47  403O :  1.45  124O :  1.43   58O :  1.43  505O :  1.42   91O :  1.40  244O :  1.40  391O :  1.38   21H :  1.36  271O :  1.35  460O :  1.34
   36H :  1.32  122H :  1.31  595O :  1.30  487O :  1.24   68H :  1.21  205O :  1.21  133O :  1.20  718O :  1.20  679O :  1.20  154O :  1.19  346O :  1.19  550O :  1.19
  712O :  1.15  382O :  1.13  688O :  1.08  457O :  1.08   63H :  1.07   57H :  1.06  388O :  1.06   80H :  1.02  333H :  1.01  604O :  1.00  174H :  0.99  490O :  0.98
  151O :  0.97  620H :  0.97    4O :  0.97  586O :  0.95  694O :  0.94  621H :  0.93  247O :  0.89  566H :  0.87  687H :  0.85  511O :  0.84  132H :  0.84  662H :  0.84
  374H :  0.83   11H :  0.82  131H :  0.81  290H :  0.81  430O :  0.79   72H :  0.78  521H :  0.77  253O :  0.76  753H :  0.75  159H :  0.75  164H :  0.74  578H :  0.73
  608H :  0.73  368H :  0.72  264H :  0.72  188H :  0.72  474H :  0.70  553O :  0.69  414H :  0.68  353H :  0.67  149H :  0.65   29H :  0.65  638H :  0.64  678H :  0.64
  634O :  0.63  665H :  0.63  755H :  0.62  715O :  0.62  524H :  0.61  338H :  0.60  313O :  0.60  377H :  0.59  191H :  0.58  435H :  0.58  267H :  0.57  332H :  0.56
  111H :  0.55   65H :  0.55  562O :  0.55  248H :  0.55  281H :  0.54   26H :  0.54  405H :  0.54  725H :  0.53   78H :  0.53  342H :  0.52  544O :  0.51  270H :  0.51
  700O :  0.51  424O :  0.50    2H :  0.50  618H :  0.50  354H :  0.50  360H :  0.49  237H :  0.49  408H :  0.48  519H :  0.48  672H :  0.47  738H :  0.47  529O :  0.47
   32H :  0.46  539H :  0.46  365H :  0.45  549H :  0.45  533H :  0.44   93H :  0.44  693H :  0.44  464H :  0.44  161H :  0.44  476H :  0.44  609H :  0.43  210H :  0.43
   17H :  0.43  329H :  0.42  628O :  0.41   45H :  0.41  273H :  0.41   74H :  0.41  127O :  0.41  215H :  0.39  653H :  0.38  500H :  0.38  735H :  0.38  642H :  0.37
  479H :  0.36  134H :  0.36  302H :  0.36  189H :  0.36  318H :  0.36  309H :  0.36  737H :  0.35  278H :  0.34  614H :  0.33  291H :  0.33  221H :  0.33  594H :  0.32
  276H :  0.32  422H :  0.31  140H :  0.31  506H :  0.31   33H :  0.30  233H :  0.30  209H :  0.30  101H :  0.29  242H :  0.29  216H :  0.29  633H :  0.29  113H :  0.29
  534H :  0.28  402H :  0.28   14H :  0.28  306H :  0.27  731H :  0.27  394O :  0.27  195H :  0.27  324H :  0.27   53H :  0.27  286O :  0.27  413H :  0.27  462H :  0.26
  293H :  0.26   22O :  0.26  601O :  0.25   96H :  0.25  720H :  0.25  361O :  0.25  671H :  0.25  171H :  0.25  576H :  0.24  593H :  0.24  224H :  0.24  386H :  0.24
  440H :  0.24  384H :  0.24  623H :  0.24  728H :  0.23  198H :  0.23  684H :  0.23   98H :  0.23   60H :  0.23  194H :  0.22  660H :  0.21  643O :  0.21  458H :  0.21
  686H :  0.21  255H :  0.21  449H :  0.21  446H :  0.21  711H :  0.21  294H :  0.21  395H :  0.20  147H :  0.20  284H :  0.20  407H :  0.20  178O :  0.20  600H :  0.20
  317H :  0.20  629H :  0.20  200H :  0.19  582H :  0.19  392H :  0.19  437H :  0.19  104H :  0.19  423H :  0.19  509H :  0.19  239H :  0.18  263H :  0.18  344H :  0.18
  410H :  0.18   75H :  0.18  674H :  0.18  261H :  0.18  197H :  0.18  591H :  0.18  176H :  0.18  138H :  0.18   27H :  0.17    9H :  0.17  477H :  0.17  432H :  0.17
  119H :  0.17  272H :  0.17  746H :  0.17  639H :  0.17  185H :  0.16   62H :  0.16   56H :  0.16   18H :  0.16  443H :  0.16   66H :  0.16  285H :  0.16  572H :  0.15
  192H :  0.15  125H :  0.15   50H :  0.15  743H :  0.15  596H :  0.15  444H :  0.15  690H :  0.14  207H :  0.14  183H :  0.13  404H :  0.13  716H :  0.13  615H :  0.13
  398H :  0.13  438H :  0.13  722H :  0.13  647H :  0.13  567H :  0.12  249H :  0.12  579H :  0.12  558H :  0.12  527H :  0.12  456H :  0.12  749H :  0.12  744H :  0.11
  626H :  0.11  723H :  0.11  420H :  0.11  326H :  0.11  535O :  0.11  666H :  0.10  375H :  0.10  441H :  0.10  668H :  0.10  341H :  0.10  540H :  0.10  254H :  0.10
  335H :  0.10  750H :  0.10  483H :  0.10  588H :  0.10  560H :  0.10   87H :  0.09  536H :  0.09  350H :  0.09  707H :  0.09  482H :  0.09  107H :  0.09  624H :  0.09
  605H :  0.09   81H :  0.09  522H :  0.09  378H :  0.08  681H :  0.08  266H :  0.08  137H :  0.08  752H :  0.08  359H :  0.08  296H :  0.08  704H :  0.08  243H :  0.08
   23H :  0.08  345H :  0.08   38H :  0.07  275H :  0.07   42H :  0.07  518H :  0.07    5H :  0.07    6H :  0.07
    7 LP   *******   0.00  18.73118  16.44342  27.07552  565O : 20.27  196O : 19.18  454O : 15.93  187O : 15.84  685O : 15.28   88O : 13.80  619O : 13.67    7O : 13.66  331O : 13.47  292O : 13.32  307O : 13.15  304O : 12.52
  289O : 12.16  445O : 12.03  520O : 10.74  130O : 10.63  625O : 10.47  337O : 10.35  142O : 10.23  646O :  9.93  577O :  9.78   85O :  9.68  103O :  9.62   82O :  9.50
   34O :  9.06  541O :  8.95  400O :  8.86  229O :  8.52   55O :  8.50  373O :  8.47  745O :  8.40  265O :  8.21  163O :  8.12  352O :  7.68   61O :  7.68   76O :  7.61
  664O :  7.56  370O :  7.46  742O :  7.36  367O :  7.19  568O :  7.14   28O :  7.12  172O :  7.11  427O :  7.00  181O :  6.99   16O :  6.92  724O :  6.64  217O :  6.64
  469O :  6.52  238O :  6.50  184O :  6.49  115O :  6.38  670O :  6.33  598O :  6.15  262O :  6.12  616O :  5.93   67O :  5.93  193O :  5.72  322O :  5.66  118O :  5.63
  208O :  5.57  202O :  5.47  268O :  5.45   31O :  5.41  319O :  5.38  667O :  5.35  532O :  5.34  709O :  5.33  472O :  5.27  610O :  5.27  559O :  5.26  547O :  5.10
  703O :  5.10  199O :  5.09  418O :  5.08  157O :  5.01  463O :  4.98  166O :  4.67  751O :  4.65  637O :  4.63  556O :  4.61   64O :  4.55  364O :  4.50  310O :  4.46
  409O :  4.44  658O :  4.42  661O :  4.37  145O :  4.25  415O :  4.19  316O :  4.11  121O :  4.07   70O :  3.93  190O :  3.93  652O :  3.90  301O :  3.88  526O :  3.86
  421O :  3.86  481O :  3.83  406O :  3.78  148O :  3.77  385O :  3.76  283O :  3.65  631O :  3.62  508O :  3.59  340O :  3.58  649O :  3.58  721O :  3.56  538O :  3.54
  334O :  3.50  211O :  3.48  478O :  3.44  589O :  3.38  376O :  3.37  622O :  3.37  100O :  3.24   40O :  3.22   46O :  3.22  250O :  3.21   73O :  3.19  448O :  3.16
  754O :  3.10  451O :  3.07  280O :  3.06  484O :  3.05  706O :  3.01  259O :  2.95    1O :  2.95   94O :  2.89  475O :  2.88  433O :  2.85  748O :  2.82  727O :  2.74
  226O :  2.74  169O :  2.71  736O :  2.68  739O :  2.66  106O :  2.59   10O :  2.59  613O :  2.59  175O :  2.56  274O :  2.56  733O :  2.52  493O :  2.51  730O :  2.51
   25O :  2.48  298O :  2.47  574O :  2.47  235O :  2.40  676O :  2.39  379O :  2.36  214O :  2.34   19O :  2.25  412O :  2.23  691O :  2.22  607O :  2.20  439O :  2.19
  499O :  2.16  241O :  2.16  640O :  2.15  139O :  2.12   79O :  2.09  697O :  2.04  223O :  2.01  343O :  1.98   43O :  1.98  592O :  1.97  397O :  1.97  496O :  1.97
  466O :  1.95  673O :  1.95  295O :  1.91   97O :  1.86  514O :  1.85  105H :  1.85  682O :  1.83  328O :  1.81   90H :  1.79  502O :  1.78  517O :  1.78  355O :  1.76
  358O :  1.76   37O :  1.76  583O :  1.76  256O :  1.74  349O :  1.72   86H :  1.70  580O :  1.70  112O :  1.69  523O :  1.68  220O :  1.67  232O :  1.66   52O :  1.64
  442O :  1.63  109O :  1.63  655O :  1.62  436O :  1.61  160O :  1.60  277O :  1.57  571O :  1.57  143H :  1.54  325O :  1.53   13O :  1.51  136O :  1.51  120H :  1.50
   49O :  1.47    8H :  1.46  403O :  1.43   58O :  1.42  124O :  1.41  505O :  1.40   91O :  1.39  244O :  1.38  391O :  1.37   21H :  1.35  271O :  1.33  460O :  1.33
   36H :  1.31  122H :  1.30  595O :  1.29  487O :  1.23   68H :  1.20  205O :  1.19  133O :  1.19  718O :  1.19  679O :  1.18  154O :  1.18  346O :  1.18  550O :  1.18
  712O :  1.13  382O :  1.12  688O :  1.07  457O :  1.07   63H :  1.06   57H :  1.05   80H :  1.01  333H :  1.00  604O :  0.99  174H :  0.98  490O :  0.97  620H :  0.96
  151O :  0.96    4O :  0.96  586O :  0.94  188H :  0.93  694O :  0.93  388O :  0.92  621H :  0.92  247O :  0.87  566H :  0.86  687H :  0.84  511O :  0.83  132H :  0.83
  374H :  0.83  662H :  0.83   11H :  0.81  131H :  0.81  290H :  0.81   72H :  0.79  430O :  0.78  521H :  0.76  159H :  0.74  753H :  0.74  164H :  0.73  578H :  0.72
  608H :  0.72  253O :  0.72  368H :  0.71  264H :  0.71  474H :  0.70  553O :  0.68  414H :  0.67  353H :  0.66  149H :  0.65   29H :  0.64  638H :  0.64  678H :  0.63
  634O :  0.63  665H :  0.62  755H :  0.62  715O :  0.61  524H :  0.60  338H :  0.60  313O :  0.59  377H :  0.59  191H :  0.57  435H :  0.57  267H :  0.56  332H :  0.55
  111H :  0.54  248H :  0.54  562O :  0.54  281H :  0.54   26H :  0.54   65H :  0.54  405H :  0.53  725H :  0.53   78H :  0.52  342H :  0.52  544O :  0.51  700O :  0.50
  270H :  0.50  189H :  0.50  424O :  0.50    2H :  0.50  618H :  0.50  354H :  0.50  360H :  0.48  237H :  0.48  408H :  0.48  519H :  0.47  672H :  0.47  738H :  0.46
  529O :  0.46   32H :  0.46  539H :  0.45  365H :  0.45  549H :  0.44  533H :  0.44   93H :  0.44  693H :  0.44  464H :  0.44  161H :  0.43  476H :  0.43  609H :  0.43
  210H :  0.43   17H :  0.42  329H :  0.42   45H :  0.41  628O :  0.41  273H :  0.40   74H :  0.40  127O :  0.40  653H :  0.38  500H :  0.38  215H :  0.38  735H :  0.38
  642H :  0.37  479H :  0.36  134H :  0.35  302H :  0.35  318H :  0.35  309H :  0.35  737H :  0.35  278H :  0.33  614H :  0.33  291H :  0.33  221H :  0.32  594H :  0.32
  276H :  0.31  422H :  0.31  140H :  0.31  506H :  0.31   33H :  0.30  101H :  0.30  233H :  0.30  209H :  0.29  216H :  0.29  242H :  0.29  633H :  0.28  113H :  0.28
   14H :  0.28  534H :  0.28  402H :  0.28  306H :  0.27  731H :  0.27  394O :  0.27  195H :  0.27  324H :  0.27  413H :  0.27   53H :  0.27  286O :  0.26  462H :  0.26
  293H :  0.26   22O :  0.26  601O :  0.25   96H :  0.25  720H :  0.25  361O :  0.25  671H :  0.25  171H :  0.25  576H :  0.24  593H :  0.24  224H :  0.24  386H :  0.24
  440H :  0.24  384H :  0.24  623H :  0.23  728H :  0.23  198H :  0.23  684H :  0.23   98H :  0.22   60H :  0.22  194H :  0.22  660H :  0.21  255H :  0.21  643O :  0.21
  686H :  0.21  449H :  0.21  446H :  0.21  711H :  0.20  458H :  0.20  294H :  0.20  395H :  0.20  147H :  0.20  284H :  0.20  407H :  0.20  178O :  0.20  600H :  0.19
  317H :  0.19  629H :  0.19  200H :  0.19  582H :  0.19  392H :  0.19  437H :  0.19  423H :  0.18  509H :  0.18  239H :  0.18  263H :  0.18  344H :  0.18  410H :  0.18
   75H :  0.18  674H :  0.18  261H :  0.18  197H :  0.18  591H :  0.17  138H :  0.17  176H :  0.17   27H :  0.17    9H :  0.17  477H :  0.17  432H :  0.17  119H :  0.17
  272H :  0.16  746H :  0.16  639H :  0.16  185H :  0.16   62H :  0.16   56H :  0.16   18H :  0.16  443H :  0.16  285H :  0.16   66H :  0.16  572H :  0.15  192H :  0.15
  107H :  0.15   50H :  0.15  743H :  0.15  125H :  0.15  596H :  0.14  444H :  0.14  104H :  0.14  690H :  0.14  207H :  0.13  183H :  0.13  404H :  0.13  716H :  0.13
  615H :  0.13  398H :  0.13  438H :  0.13  722H :  0.13  647H :  0.12  567H :  0.12  579H :  0.12  558H :  0.12  527H :  0.12  249H :  0.12  749H :  0.11  744H :  0.11
  626H :  0.11  723H :  0.11  420H :  0.11  326H :  0.11  535O :  0.11  666H :  0.10  375H :  0.10  441H :  0.10  668H :  0.10  341H :  0.10  540H :  0.10  335H :  0.10
  483H :  0.10  750H :  0.10  588H :  0.10  560H :  0.10  254H :  0.10   87H :  0.09  536H :  0.09  350H :  0.09  707H :  0.09  482H :  0.09  624H :  0.09  605H :  0.09
   81H :  0.09  522H :  0.08  378H :  0.08  681H :  0.08  266H :  0.08  137H :  0.08  752H :  0.08  359H :  0.08  296H :  0.08  704H :  0.08  243H :  0.08   23H :  0.08
  345H :  0.07  456H :  0.07   38H :  0.07  275H :  0.07  518H :  0.07   42H :  0.07    5H :  0.07
    8 LP   *******   0.00 -10.48448   3.18205  -8.03312  565O : 20.73  196O : 18.38  187O : 15.20  685O : 14.64   88O : 13.22  619O : 13.10    7O : 13.05  454O : 13.05  331O : 12.91  292O : 12.77  307O : 12.60  304O : 12.00
  289O : 11.64  445O : 11.52  520O : 10.30  130O : 10.19  625O : 10.03  337O :  9.91  142O :  9.80  646O :  9.52  577O :  9.39   85O :  9.28  103O :  9.22   82O :  9.11
   34O :  8.68  541O :  8.55  400O :  8.50  229O :  8.16   55O :  8.14  373O :  8.10  745O :  8.05  265O :  7.86  163O :  7.78  352O :  7.36   61O :  7.35   76O :  7.29
  664O :  7.24  370O :  7.16  742O :  7.05  367O :  6.89  568O :  6.85   28O :  6.82  172O :  6.81  427O :  6.71  181O :  6.70   16O :  6.64  724O :  6.36  217O :  6.36
  469O :  6.25  238O :  6.23  184O :  6.22  115O :  6.11  670O :  6.07  598O :  5.89  262O :  5.86   67O :  5.68  616O :  5.68  193O :  5.48  118O :  5.40  322O :  5.35
  208O :  5.34  202O :  5.26  268O :  5.23   31O :  5.19  319O :  5.16  667O :  5.13  532O :  5.12  709O :  5.10  559O :  5.06  472O :  5.05  610O :  5.05  547O :  4.89
  703O :  4.88  199O :  4.88  418O :  4.87  157O :  4.80  463O :  4.78  166O :  4.46  751O :  4.46  637O :  4.44  556O :  4.42   64O :  4.36  364O :  4.31  310O :  4.27
  409O :  4.25  658O :  4.24  661O :  4.19  145O :  4.08  415O :  4.02  316O :  3.95  121O :  3.90  190O :  3.76  652O :  3.74   70O :  3.73  301O :  3.72  421O :  3.70
  526O :  3.70  406O :  3.64  481O :  3.63  148O :  3.61  385O :  3.61  283O :  3.50  631O :  3.47  508O :  3.44  340O :  3.43  649O :  3.43  721O :  3.41  538O :  3.39
  334O :  3.35  211O :  3.33  478O :  3.30  589O :  3.24  376O :  3.23  622O :  3.23   40O :  3.11  100O :  3.10   46O :  3.08  250O :  3.07   73O :  3.06  448O :  3.04
  754O :  2.96  451O :  2.96  280O :  2.94  484O :  2.93  706O :  2.89  259O :  2.83    1O :  2.83   94O :  2.77  475O :  2.76  433O :  2.73  748O :  2.70  727O :  2.63
  169O :  2.60  106O :  2.58  736O :  2.57  739O :  2.54   10O :  2.49  613O :  2.48  226O :  2.48  274O :  2.45  175O :  2.45  733O :  2.42  493O :  2.41  730O :  2.40
   25O :  2.38  298O :  2.37  574O :  2.36  235O :  2.30  676O :  2.29  379O :  2.26  214O :  2.23   19O :  2.15  412O :  2.14  691O :  2.13  607O :  2.11  439O :  2.10
  499O :  2.07  241O :  2.07  640O :  2.07  139O :  2.03   79O :  2.00  697O :  1.95  223O :  1.93  343O :  1.90  592O :  1.89  397O :  1.89  496O :  1.89   43O :  1.89
  466O :  1.87  673O :  1.87  295O :  1.84   97O :  1.79  514O :  1.78  105H :  1.78  682O :  1.76  328O :  1.73   90H :  1.71  502O :  1.70  517O :  1.70  355O :  1.69
  358O :  1.69   37O :  1.69  583O :  1.68  256O :  1.67  349O :  1.65   86H :  1.63  580O :  1.62  112O :  1.62  220O :  1.61  523O :  1.61  232O :  1.59   52O :  1.58
  442O :  1.57  109O :  1.56  655O :  1.55  436O :  1.54  160O :  1.54  277O :  1.51  571O :  1.50  143H :  1.47  325O :  1.46  136O :  1.45  120H :  1.44   13O :  1.43
   49O :  1.41    8H :  1.39  403O :  1.37   58O :  1.36  124O :  1.35  505O :  1.34   91O :  1.33  244O :  1.32  391O :  1.31   21H :  1.29  271O :  1.28  460O :  1.27
   36H :  1.25  122H :  1.24  595O :  1.24  487O :  1.18   68H :  1.15  205O :  1.14  133O :  1.14  718O :  1.14  679O :  1.13  154O :  1.13  346O :  1.13  550O :  1.13
  712O :  1.09  382O :  1.07  688O :  1.03  457O :  1.02   63H :  1.02   57H :  1.01  388O :  1.00   80H :  0.97  333H :  0.96  604O :  0.95  174H :  0.94  490O :  0.93
  620H :  0.92  151O :  0.92    4O :  0.92  586O :  0.90  188H :  0.89  694O :  0.89  621H :  0.88  247O :  0.84  687H :  0.81  511O :  0.80  132H :  0.80  374H :  0.79
  662H :  0.79  290H :  0.77  131H :  0.77   11H :  0.76  430O :  0.75   72H :  0.74  521H :  0.73  253O :  0.72  566H :  0.72  159H :  0.71  753H :  0.71  164H :  0.70
  578H :  0.69  608H :  0.69  368H :  0.68  264H :  0.68  474H :  0.67  553O :  0.65  414H :  0.64  353H :  0.63  149H :  0.62   29H :  0.61  638H :  0.61  678H :  0.60
  634O :  0.60  665H :  0.60  755H :  0.59  715O :  0.58  524H :  0.57  338H :  0.57  313O :  0.56  377H :  0.56  191H :  0.55  435H :  0.55  267H :  0.54  111H :  0.54
  332H :  0.53  562O :  0.52  248H :  0.52  281H :  0.52   26H :  0.51   65H :  0.51  405H :  0.51  725H :  0.51   78H :  0.50  342H :  0.50  544O :  0.49  270H :  0.48
  700O :  0.48  424O :  0.48    2H :  0.48  618H :  0.48  189H :  0.48  354H :  0.48  360H :  0.46  237H :  0.46  408H :  0.46   32H :  0.46  519H :  0.45  672H :  0.45
  324H :  0.45  738H :  0.44  529O :  0.44  539H :  0.43  365H :  0.43  549H :  0.43  533H :  0.42   93H :  0.42  693H :  0.42  464H :  0.42  161H :  0.42  476H :  0.41
  609H :  0.41  210H :  0.41   17H :  0.41  329H :  0.40  628O :  0.39   45H :  0.39  273H :  0.39   74H :  0.39  127O :  0.38  653H :  0.36  500H :  0.36  215H :  0.36
  735H :  0.36  642H :  0.35  479H :  0.34  134H :  0.34  302H :  0.34  318H :  0.34  309H :  0.34  737H :  0.34  278H :  0.32  614H :  0.31  291H :  0.31  221H :  0.31
  594H :  0.31   33H :  0.30  276H :  0.30  422H :  0.30  140H :  0.30  506H :  0.29  101H :  0.28  233H :  0.28  209H :  0.28  216H :  0.28  242H :  0.28  633H :  0.27
  402H :  0.27  113H :  0.27  534H :  0.27   14H :  0.26  306H :  0.26  394O :  0.26  731H :  0.26  195H :  0.26  413H :  0.26   53H :  0.25  286O :  0.25  462H :  0.25
  293H :  0.25   22O :  0.25   96H :  0.24  720H :  0.24  671H :  0.24  361O :  0.24  171H :  0.24  576H :  0.23  601O :  0.23  593H :  0.23  224H :  0.23  386H :  0.23
  440H :  0.23  384H :  0.23  623H :  0.22  728H :  0.22  198H :  0.22  684H :  0.22   98H :  0.22   60H :  0.21  194H :  0.21  660H :  0.20  643O :  0.20  458H :  0.20
  686H :  0.20  449H :  0.20  255H :  0.20  446H :  0.20  711H :  0.20  294H :  0.19  395H :  0.19  147H :  0.19  284H :  0.19  178O :  0.19  407H :  0.19  600H :  0.19
  317H :  0.19  629H :  0.19  200H :  0.18  582H :  0.18  392H :  0.18  437H :  0.18  423H :  0.18  509H :  0.18  239H :  0.18  263H :  0.17  410H :  0.17  344H :  0.17
   75H :  0.17  674H :  0.17  261H :  0.17  197H :  0.17  591H :  0.17  138H :  0.17  176H :  0.17   27H :  0.17  477H :  0.16  567H :  0.16    9H :  0.16  432H :  0.16
  119H :  0.16  272H :  0.16  746H :  0.16  639H :  0.16  185H :  0.16   62H :  0.16   56H :  0.15   18H :  0.15  443H :  0.15  285H :  0.15   66H :  0.15  572H :  0.15
  192H :  0.15   50H :  0.14  125H :  0.14  743H :  0.14  596H :  0.14  444H :  0.14  104H :  0.14  690H :  0.13  207H :  0.13  183H :  0.13  404H :  0.13  716H :  0.12
  615H :  0.12  398H :  0.12  438H :  0.12  722H :  0.12  647H :  0.12  249H :  0.12  579H :  0.12  558H :  0.11  527H :  0.11  456H :  0.11  749H :  0.11  744H :  0.11
  626H :  0.11  723H :  0.10  420H :  0.10  326H :  0.10  535O :  0.10  666H :  0.10  375H :  0.10  441H :  0.10  668H :  0.10  483H :  0.10  341H :  0.10  540H :  0.10
  254H :  0.09  335H :  0.09  750H :  0.09  588H :  0.09  560H :  0.09   87H :  0.09  536H :  0.09  350H :  0.09  707H :  0.09  482H :  0.09  624H :  0.08  605H :  0.08
   81H :  0.08  522H :  0.08  378H :  0.08  681H :  0.08  266H :  0.08  137H :  0.08  752H :  0.08  107H :  0.08  359H :  0.08  296H :  0.08  704H :  0.08  243H :  0.08
   23H :  0.07  345H :  0.07   38H :  0.07
    9 LP   *******   0.00  37.48703 -10.16438  67.89088  565O : 17.87  196O : 16.91  187O : 13.98  685O : 13.47  445O : 13.27   88O : 12.16  619O : 12.05    7O : 12.04  454O : 12.01  331O : 11.88  292O : 11.75  307O : 11.59
  304O : 11.04  289O : 10.72  520O :  9.47  130O :  9.38  625O :  9.23  337O :  9.12  142O :  9.02  646O :  8.76  577O :  8.64   85O :  8.53  103O :  8.48   82O :  8.38
   34O :  7.99  541O :  7.89  400O :  7.81  229O :  7.51   55O :  7.49  373O :  7.46  745O :  7.41  265O :  7.23  163O :  7.16  352O :  6.77   61O :  6.77   76O :  6.71
  664O :  6.67  370O :  6.59  742O :  6.49  367O :  6.34  568O :  6.30   28O :  6.28  172O :  6.26  427O :  6.18  181O :  6.16   16O :  6.11  724O :  5.85  217O :  5.85
  469O :  5.75  238O :  5.73  184O :  5.73  670O :  5.59  115O :  5.56  598O :  5.42  262O :  5.39   67O :  5.23  616O :  5.22  193O :  5.04  322O :  4.99  118O :  4.96
  208O :  4.91  202O :  4.83  268O :  4.81   31O :  4.77  319O :  4.74  667O :  4.72  532O :  4.71  709O :  4.70  559O :  4.65  472O :  4.64  610O :  4.64  547O :  4.50
  703O :  4.49  199O :  4.48  418O :  4.48  157O :  4.41  463O :  4.40  166O :  4.11  751O :  4.10  637O :  4.09  556O :  4.06   64O :  4.01  364O :  3.96  310O :  3.93
  409O :  3.91  658O :  3.90  661O :  3.85  145O :  3.75  415O :  3.70  316O :  3.63  121O :  3.58  190O :  3.46  652O :  3.44   70O :  3.43  301O :  3.42  421O :  3.40
  526O :  3.40  481O :  3.38  406O :  3.34  148O :  3.32  385O :  3.32  283O :  3.22  631O :  3.19  508O :  3.16  340O :  3.16  649O :  3.15  721O :  3.14  538O :  3.12
  334O :  3.09  211O :  3.05  478O :  3.03  589O :  2.98  376O :  2.97  622O :  2.97  100O :  2.85   40O :  2.84   46O :  2.84  250O :  2.83   73O :  2.80  448O :  2.79
  754O :  2.73  451O :  2.72  280O :  2.70  484O :  2.69  706O :  2.65  259O :  2.60    1O :  2.60   94O :  2.55  475O :  2.54  433O :  2.51  748O :  2.48  727O :  2.42
  226O :  2.42  169O :  2.39  106O :  2.37  736O :  2.36  739O :  2.34   10O :  2.29  613O :  2.28  274O :  2.26  175O :  2.26  733O :  2.22  493O :  2.22  730O :  2.21
   25O :  2.19  298O :  2.19  574O :  2.18  235O :  2.12  676O :  2.11  379O :  2.08  214O :  2.05   19O :  1.98  412O :  1.97  691O :  1.96  607O :  1.94  439O :  1.93
  499O :  1.90  241O :  1.90  640O :  1.89  139O :  1.87   79O :  1.85  697O :  1.80  223O :  1.77  343O :  1.75  592O :  1.74  496O :  1.74   43O :  1.73  466O :  1.72
  673O :  1.72  397O :  1.71  295O :  1.69  514O :  1.64  105H :  1.63   97O :  1.63  682O :  1.62  328O :  1.59   90H :  1.57  502O :  1.57  517O :  1.57  358O :  1.56
  355O :  1.56   37O :  1.55  583O :  1.55  256O :  1.54  349O :  1.51   86H :  1.50  580O :  1.50  112O :  1.49  523O :  1.48  220O :  1.47  232O :  1.46   52O :  1.45
  442O :  1.44  109O :  1.44  655O :  1.43  160O :  1.41  436O :  1.40  277O :  1.39  571O :  1.38  143H :  1.36  325O :  1.35  136O :  1.33  120H :  1.32   13O :  1.31
   49O :  1.30    8H :  1.28  403O :  1.26   58O :  1.25  124O :  1.25  505O :  1.23   91O :  1.22  244O :  1.22  391O :  1.20   21H :  1.19  271O :  1.18  460O :  1.17
   36H :  1.15  122H :  1.14  595O :  1.14  487O :  1.08   68H :  1.05  205O :  1.05  133O :  1.05  718O :  1.05  154O :  1.04  679O :  1.04  346O :  1.04  550O :  1.04
  712O :  1.00  382O :  0.98  688O :  0.94  457O :  0.94   63H :  0.94   57H :  0.93  388O :  0.92   80H :  0.89  333H :  0.88  604O :  0.88  174H :  0.87  490O :  0.85
  620H :  0.85  151O :  0.85    4O :  0.84  586O :  0.83  188H :  0.82  694O :  0.82  621H :  0.81  247O :  0.77  566H :  0.76  687H :  0.74  511O :  0.74  132H :  0.74
  374H :  0.73  662H :  0.73   11H :  0.71  131H :  0.71  290H :  0.71  430O :  0.69   72H :  0.68  521H :  0.67  253O :  0.66  159H :  0.65  753H :  0.65  164H :  0.65
  578H :  0.64  608H :  0.63  368H :  0.63  264H :  0.62  474H :  0.61  553O :  0.60  414H :  0.59  353H :  0.58  149H :  0.57   29H :  0.56  638H :  0.56  678H :  0.55
  634O :  0.55  665H :  0.55  755H :  0.54  715O :  0.54  524H :  0.53  338H :  0.53  313O :  0.52  377H :  0.52  191H :  0.50  435H :  0.50  267H :  0.50  332H :  0.49
  111H :  0.48  562O :  0.48  248H :  0.48  281H :  0.48   26H :  0.47   65H :  0.47  405H :  0.47  725H :  0.47   78H :  0.46  342H :  0.46  544O :  0.45  270H :  0.44
  700O :  0.44  424O :  0.44    2H :  0.44  618H :  0.44  189H :  0.44  354H :  0.44  360H :  0.43  237H :  0.42  408H :  0.42  519H :  0.42  672H :  0.41  738H :  0.41
  529O :  0.41   32H :  0.40  539H :  0.40  365H :  0.39  549H :  0.39  533H :  0.39   93H :  0.39  693H :  0.39  464H :  0.39  161H :  0.38  476H :  0.38  609H :  0.38
  210H :  0.38   17H :  0.37  329H :  0.37  628O :  0.36   45H :  0.36  273H :  0.36   74H :  0.35  127O :  0.35  653H :  0.33  500H :  0.33  215H :  0.33  735H :  0.33
  642H :  0.32  479H :  0.31  134H :  0.31  302H :  0.31  318H :  0.31  309H :  0.31  737H :  0.31  278H :  0.29  614H :  0.29  291H :  0.29  221H :  0.28  594H :  0.28
  276H :  0.28  422H :  0.27  140H :  0.27  506H :  0.27   33H :  0.27  101H :  0.26  233H :  0.26  209H :  0.26  216H :  0.26  242H :  0.25  633H :  0.25  113H :  0.25
  534H :  0.25  402H :  0.24   14H :  0.24  306H :  0.24  731H :  0.24  394O :  0.24  195H :  0.24  324H :  0.24  413H :  0.23   53H :  0.23  286O :  0.23  462H :  0.23
  293H :  0.23   22O :  0.23  601O :  0.22   96H :  0.22  720H :  0.22  361O :  0.22  671H :  0.22  171H :  0.22  576H :  0.21  593H :  0.21  224H :  0.21  386H :  0.21
  440H :  0.21  384H :  0.21  623H :  0.21  728H :  0.20  198H :  0.20  684H :  0.20   60H :  0.20  194H :  0.19   98H :  0.19  660H :  0.19  643O :  0.19  458H :  0.19
  686H :  0.18  449H :  0.18  255H :  0.18  711H :  0.18  294H :  0.18  395H :  0.18  147H :  0.17  284H :  0.17  437H :  0.17  407H :  0.17  178O :  0.17  600H :  0.17
  317H :  0.17  629H :  0.17  200H :  0.17  582H :  0.17  392H :  0.17  423H :  0.16  509H :  0.16  239H :  0.16  263H :  0.16   75H :  0.16  344H :  0.16  410H :  0.16
  674H :  0.16  261H :  0.16  197H :  0.16  591H :  0.15  138H :  0.15  176H :  0.15   27H :  0.15    9H :  0.15  477H :  0.15  432H :  0.15  119H :  0.15  446H :  0.14
  272H :  0.14  746H :  0.14  639H :  0.14  185H :  0.14   62H :  0.14   56H :  0.14   18H :  0.14  443H :  0.14  285H :  0.14   66H :  0.14  572H :  0.13  192H :  0.13
   50H :  0.13  125H :  0.13  743H :  0.13  596H :  0.13  444H :  0.13  536H :  0.13  104H :  0.12  690H :  0.12  207H :  0.12  183H :  0.12  404H :  0.12  716H :  0.11
[...]
   370   8 o    1.888 --   371 h    0.841   372 h    0.801
   371   1 h    0.897 --   370 o    0.841
   372   1 h    0.884 --   370 o    0.801
   373   8 o    1.854 --   374 h    0.872   375 h    0.816
   374   1 h    0.894 --   373 o    0.872
   375   1 h    0.878 --   373 o    0.816
   376   8 o    1.830 --   377 h    0.821   378 h    0.785
   377   1 h    0.893 --   376 o    0.821
   378   1 h    0.872 --   376 o    0.785
   379   8 o    1.833 --   381 h    0.841   380 h    0.778
   380   1 h    0.869 --   379 o    0.778
   381   1 h    0.893 --   379 o    0.841
   382   8 o    1.840 --   383 h    0.851   384 h    0.811
   383   1 h    0.894 --   382 o    0.851
   384   1 h    0.882 --   382 o    0.811
   385   8 o    1.856 --   386 h    0.871   387 h    0.849
   386   1 h    0.905 --   385 o    0.871
   387   1 h    0.889 --   385 o    0.849
   388   8 o    1.867 --   390 h    0.821   389 h    0.783
   389   1 h    0.871 --   388 o    0.783
   390   1 h    0.877 --   388 o    0.821
   391   8 o    1.835 --   392 h    0.894   393 h    0.844
   392   1 h    0.904 --   391 o    0.894
   393   1 h    0.893 --   391 o    0.844
   394   8 o    1.860 --   396 h    0.874   395 h    0.839
   395   1 h    0.891 --   394 o    0.839
   396   1 h    0.898 --   394 o    0.874
   397   8 o    1.856 --   399 h    0.885   398 h    0.798
   398   1 h    0.870 --   397 o    0.798
   399   1 h    0.902 --   397 o    0.885
   400   8 o    1.851 --   401 h    0.886   402 h    0.785
   401   1 h    0.908 --   400 o    0.886
   402   1 h    0.877 --   400 o    0.785
   403   8 o    1.837 --   405 h    0.840   404 h    0.799
   404   1 h    0.873 --   403 o    0.799
   405   1 h    0.893 --   403 o    0.840
   406   8 o    1.857 --   408 h    0.828   407 h    0.808
   407   1 h    0.875 --   406 o    0.808
   408   1 h    0.892 --   406 o    0.828
   409   8 o    1.840 --   410 h    0.849   411 h    0.828
   410   1 h    0.884 --   409 o    0.849
   411   1 h    0.875 --   409 o    0.828
   412   8 o    1.855 --   414 h    0.826   413 h    0.795
   413   1 h    0.872 --   412 o    0.795
   414   1 h    0.878 --   412 o    0.826
   415   8 o    1.832 --   417 h    0.872   416 h    0.856
   416   1 h    0.898 --   415 o    0.856
   417   1 h    0.897 --   415 o    0.872
   418   8 o    1.855 --   419 h    0.852   420 h    0.804
   419   1 h    0.882 --   418 o    0.852
   420   1 h    0.880 --   418 o    0.804
   421   8 o    1.846 --   423 h    0.808   422 h    0.784
   422   1 h    0.873 --   421 o    0.784
   423   1 h    0.886 --   421 o    0.808
   424   8 o    1.804 --   426 h    0.837   425 h    0.819
   425   1 h    0.890 --   424 o    0.819
   426   1 h    0.887 --   424 o    0.837
   427   8 o    1.848 --   428 h    0.881   429 h    0.849
   428   1 h    0.897 --   427 o    0.881
   429   1 h    0.889 --   427 o    0.849
   430   8 o    1.842 --   432 h    0.832   431 h    0.827
   431   1 h    0.893 --   430 o    0.827
   432   1 h    0.885 --   430 o    0.832
   433   8 o    1.855 --   434 h    0.884   435 h    0.808
   434   1 h    0.903 --   433 o    0.884
   435   1 h    0.877 --   433 o    0.808
   436   8 o    1.860 --   438 h    0.837   437 h    0.833
   437   1 h    0.889 --   436 o    0.833
   438   1 h    0.891 --   436 o    0.837
   439   8 o    1.830 --   440 h    0.843   441 h    0.829
   440   1 h    0.884 --   439 o    0.843
   441   1 h    0.887 --   439 o    0.829
   442   8 o    1.848 --   444 h    0.817   443 h    0.805
   443   1 h    0.877 --   442 o    0.805
   444   1 h    0.884 --   442 o    0.817
   445   8 o    1.821 --   447 h    0.832   446 h    0.825
   446   1 h    0.890 --   445 o    0.825
   447   1 h    0.892 --   445 o    0.832
   448   8 o    1.864 --   450 h    0.914   449 h    0.787
   449   1 h    0.873 --   448 o    0.787
   450   1 h    0.919 --   448 o    0.914
   451   8 o    1.869 --   452 h    0.852   453 h    0.836
   452   1 h    0.891 --   451 o    0.852
   453   1 h    0.880 --   451 o    0.836
   454   8 o    1.877 --   456 h    0.835   455 h    0.808
   455   1 h    0.866 --   454 o    0.808
   456   1 h    0.886 --   454 o    0.835
   457   8 o    1.833 --   458 h    0.829   459 h    0.820
   458   1 h    0.883 --   457 o    0.829
   459   1 h    0.884 --   457 o    0.820
   460   8 o    1.862 --   462 h    0.857   461 h    0.788
   461   1 h    0.876 --   460 o    0.788
   462   1 h    0.890 --   460 o    0.857
   463   8 o    1.873 --   465 h    0.862   464 h    0.842
   464   1 h    0.887 --   463 o    0.842
   465   1 h    0.896 --   463 o    0.862
   466   8 o    1.847 --   467 h    0.840   468 h    0.792
   467   1 h    0.885 --   466 o    0.840
   468   1 h    0.885 --   466 o    0.792
   469   8 o    1.844 --   471 h    0.843   470 h    0.835
   470   1 h    0.886 --   469 o    0.835
   471   1 h    0.887 --   469 o    0.843
   472   8 o    1.860 --   474 h    0.877   473 h    0.854
   473   1 h    0.890 --   472 o    0.854
   474   1 h    0.896 --   472 o    0.877
   475   8 o    1.817 --   476 h    0.852   477 h    0.787
   476   1 h    0.891 --   475 o    0.852
   477   1 h    0.875 --   475 o    0.787
   478   8 o    1.847 --   480 h    0.884   479 h    0.790
   479   1 h    0.872 --   478 o    0.790
   480   1 h    0.903 --   478 o    0.884
   481   8 o    1.850 --   482 h    0.842   483 h    0.830
   482   1 h    0.891 --   481 o    0.842
   483   1 h    0.889 --   481 o    0.830
   484   8 o    1.830 --   486 h    0.811   485 h    0.801
   485   1 h    0.886 --   484 o    0.801
   486   1 h    0.889 --   484 o    0.811
   487   8 o    1.856 --   488 h    0.870   489 h    0.857
   488   1 h    0.897 --   487 o    0.870
   489   1 h    0.894 --   487 o    0.857
   490   8 o    1.838 --   491 h    0.888   492 h    0.792
   491   1 h    0.903 --   490 o    0.888
   492   1 h    0.872 --   490 o    0.792
   493   8 o    1.837 --   495 h    0.817   494 h    0.817
   494   1 h    0.890 --   493 o    0.817
   495   1 h    0.881 --   493 o    0.817
   496   8 o    1.844 --   497 h    0.911   498 h    0.803
   497   1 h    0.916 --   496 o    0.911
   498   1 h    0.882 --   496 o    0.803
   499   8 o    1.853 --   500 h    0.845   501 h    0.831
   500   1 h    0.893 --   499 o    0.845
   501   1 h    0.881 --   499 o    0.831
   502   8 o    1.824 --   503 h    0.845   504 h    0.826
   503   1 h    0.896 --   502 o    0.845
   504   1 h    0.890 --   502 o    0.826
   505   8 o    1.825 --   507 h    0.859   506 h    0.835
   506   1 h    0.894 --   505 o    0.835
   507   1 h    0.894 --   505 o    0.859
   508   8 o    1.853 --   510 h    0.829   509 h    0.802
   509   1 h    0.868 --   508 o    0.802
   510   1 h    0.877 --   508 o    0.829
   511   8 o    1.803 --   513 h    0.838   512 h    0.827
   512   1 h    0.883 --   511 o    0.827
   513   1 h    0.894 --   511 o    0.838
   514   8 o    1.867 --   515 h    0.873   516 h    0.842
   515   1 h    0.901 --   514 o    0.873
   516   1 h    0.885 --   514 o    0.842
   517   8 o    1.871 --   519 h    0.888   518 h    0.825
   518   1 h    0.876 --   517 o    0.825
   519   1 h    0.900 --   517 o    0.888
   520   8 o    1.836 --   522 h    0.869   521 h    0.814
   521   1 h    0.883 --   520 o    0.814
   522   1 h    0.902 --   520 o    0.869
   523   8 o    1.823 --   525 h    0.848   524 h    0.840
   524   1 h    0.890 --   523 o    0.840
   525   1 h    0.895 --   523 o    0.848
   526   8 o    1.825 --   527 h    0.862   528 h    0.859
   527   1 h    0.893 --   526 o    0.862
   528   1 h    0.890 --   526 o    0.859
   529   8 o    1.850 --   530 h    0.822   531 h    0.797
   530   1 h    0.893 --   529 o    0.822
   531   1 h    0.874 --   529 o    0.797
   532   8 o    1.856 --   534 h    0.847   533 h    0.836
   533   1 h    0.891 --   532 o    0.836
   534   1 h    0.895 --   532 o    0.847
   535   8 o    1.868 --   536 h    0.846   537 h    0.837
   536   1 h    0.887 --   535 o    0.846
   537   1 h    0.891 --   535 o    0.837
   538   8 o    1.846 --   539 h    0.831   540 h    0.818
   539   1 h    0.883 --   538 o    0.831
   540   1 h    0.886 --   538 o    0.818
   541   8 o    1.857 --   542 h    0.853   543 h    0.848
   542   1 h    0.897 --   541 o    0.853
   543   1 h    0.894 --   541 o    0.848
   544   8 o    1.875 --   545 h    0.913   546 h    0.774
   545   1 h    0.916 --   544 o    0.913
   546   1 h    0.868 --   544 o    0.774
   547   8 o    1.832 --   549 h    0.848   548 h    0.822
   548   1 h    0.883 --   547 o    0.822
   549   1 h    0.899 --   547 o    0.848
   550   8 o    1.865 --   551 h    0.849   552 h    0.825
   551   1 h    0.892 --   550 o    0.849
   552   1 h    0.877 --   550 o    0.825
   553   8 o    1.834 --   554 h    0.854   555 h    0.843
   554   1 h    0.896 --   553 o    0.854
   555   1 h    0.890 --   553 o    0.843
   556   8 o    1.868 --   557 h    0.842   558 h    0.792
   557   1 h    0.890 --   556 o    0.842
   558   1 h    0.869 --   556 o    0.792
   559   8 o    1.854 --   560 h    0.839   561 h    0.830
   560   1 h    0.896 --   559 o    0.839
   561   1 h    0.879 --   559 o    0.830
   562   8 o    1.851 --   564 h    0.796   563 h    0.769
   563   1 h    0.882 --   562 o    0.769   178 o    0.102
   564   1 h    0.874 --   562 o    0.796
   565   8 o    1.860 --   566 h    0.840   567 h    0.830
   566   1 h    0.888 --   565 o    0.840
   567   1 h    0.891 --   565 o    0.830
   568   8 o    1.840 --   569 h    0.907   570 h    0.834
   569   1 h    0.913 --   568 o    0.907
   570   1 h    0.880 --   568 o    0.834
   571   8 o    1.861 --   572 h    0.813   573 h    0.807
   572   1 h    0.878 --   571 o    0.813
   573   1 h    0.875 --   571 o    0.807
   574   8 o    1.829 --   576 h    0.848   575 h    0.845
   575   1 h    0.892 --   574 o    0.845
   576   1 h    0.887 --   574 o    0.848
   577   8 o    1.829 --   578 h    0.878   579 h    0.833
   578   1 h    0.902 --   577 o    0.878
   579   1 h    0.886 --   577 o    0.833
   580   8 o    1.889 --   581 h    0.854   582 h    0.842   636 h    0.102
   581   1 h    0.894 --   580 o    0.854
   582   1 h    0.889 --   580 o    0.842
   583   8 o    1.823 --   584 h    0.883   585 h    0.839
   584   1 h    0.904 --   583 o    0.883
   585   1 h    0.894 --   583 o    0.839
   586   8 o    1.855 --   588 h    0.884   587 h    0.799
   587   1 h    0.868 --   586 o    0.799
   588   1 h    0.899 --   586 o    0.884
   589   8 o    1.820 --   590 h    0.862   591 h    0.808
   590   1 h    0.903 --   589 o    0.862
   591   1 h    0.880 --   589 o    0.808
   592   8 o    1.858 --   593 h    0.863   594 h    0.833
   593   1 h    0.894 --   592 o    0.863
   594   1 h    0.877 --   592 o    0.833
   595   8 o    1.834 --   596 h    0.866   597 h    0.835
   596   1 h    0.901 --   595 o    0.866
   597   1 h    0.880 --   595 o    0.835
   598   8 o    1.823 --   599 h    0.869   600 h    0.839
   599   1 h    0.901 --   598 o    0.869
   600   1 h    0.894 --   598 o    0.839
   601   8 o    1.865 --   602 h    0.842   603 h    0.840
   602   1 h    0.890 --   601 o    0.842
   603   1 h    0.890 --   601 o    0.840
   604   8 o    1.862 --   605 h    0.869   606 h    0.859
   605   1 h    0.894 --   604 o    0.869
   606   1 h    0.891 --   604 o    0.859
   607   8 o    1.815 --   608 h    0.842   609 h    0.825
   608   1 h    0.897 --   607 o    0.842
   609   1 h    0.885 --   607 o    0.825
   610   8 o    1.838 --   612 h    0.905   611 h    0.841
   611   1 h    0.874 --   610 o    0.841
   612   1 h    0.911 --   610 o    0.905
   613   8 o    1.865 --   615 h    0.865   614 h    0.833
   614   1 h    0.893 --   613 o    0.833
   615   1 h    0.896 --   613 o    0.865
   616   8 o    1.846 --   617 h    0.824   618 h    0.820
   617   1 h    0.885 --   616 o    0.824
   618   1 h    0.893 --   616 o    0.820
   619   8 o    1.851 --   621 h    0.853   620 h    0.813
   620   1 h    0.876 --   619 o    0.813
   621   1 h    0.890 --   619 o    0.853
   622   8 o    1.820 --   623 h    0.849   624 h    0.842
   623   1 h    0.896 --   622 o    0.849
   624   1 h    0.894 --   622 o    0.842
   625   8 o    1.839 --   627 h    0.849   626 h    0.811
   626   1 h    0.886 --   625 o    0.811
   627   1 h    0.899 --   625 o    0.849
   628   8 o    1.850 --   629 h    0.837   630 h    0.790
   629   1 h    0.887 --   628 o    0.837
   630   1 h    0.878 --   628 o    0.790
   631   8 o    1.849 --   632 h    0.864   633 h    0.856
   632   1 h    0.900 --   631 o    0.864
   633   1 h    0.883 --   631 o    0.856
   634   8 o    1.831 --   635 h    0.912   636 h    0.774
   635   1 h    0.921 --   634 o    0.912
   636   1 h    0.881 --   634 o    0.774   580 o    0.102
   637   8 o    1.866 --   639 h    0.853   638 h    0.849
   638   1 h    0.893 --   637 o    0.849
   639   1 h    0.894 --   637 o    0.853
   640   8 o    1.822 --   641 h    0.819   642 h    0.808
   641   1 h    0.883 --   640 o    0.819
   642   1 h    0.882 --   640 o    0.808
   643   8 o    1.884 --   644 h    0.902   645 h    0.807
   644   1 h    0.906 --   643 o    0.902
   645   1 h    0.869 --   643 o    0.807
   646   8 o    1.856 --   647 h    0.914   648 h    0.817
   647   1 h    0.920 --   646 o    0.914
   648   1 h    0.881 --   646 o    0.817
   649   8 o    1.825 --   650 h    0.876   651 h    0.792
   650   1 h    0.909 --   649 o    0.876
   651   1 h    0.883 --   649 o    0.792
   652   8 o    1.858 --   653 h    0.867   654 h    0.855
   653   1 h    0.889 --   652 o    0.867
   654   1 h    0.891 --   652 o    0.855
   655   8 o    1.849 --   656 h    0.806   657 h    0.796
   656   1 h    0.887 --   655 o    0.806
   657   1 h    0.881 --   655 o    0.796
   658   8 o    1.867 --   659 h    0.895   660 h    0.790
   659   1 h    0.906 --   658 o    0.895
   660   1 h    0.870 --   658 o    0.790
   661   8 o    1.833 --   663 h    0.842   662 h    0.835
   662   1 h    0.884 --   661 o    0.835
   663   1 h    0.877 --   661 o    0.842
   664   8 o    1.842 --   665 h    0.899   666 h    0.793
   665   1 h    0.909 --   664 o    0.899
   666   1 h    0.874 --   664 o    0.793
   667   8 o    1.841 --   668 h    0.876   669 h    0.811
   668   1 h    0.902 --   667 o    0.876
   669   1 h    0.880 --   667 o    0.811
   670   8 o    1.869 --   672 h    0.856   671 h    0.806
   671   1 h    0.870 --   670 o    0.806
   672   1 h    0.896 --   670 o    0.856
   673   8 o    1.845 --   675 h    0.860   674 h    0.823
   674   1 h    0.874 --   673 o    0.823
   675   1 h    0.896 --   673 o    0.860
   676   8 o    1.825 --   677 h    0.882   678 h    0.874
   677   1 h    0.904 --   676 o    0.882
   678   1 h    0.898 --   676 o    0.874
   679   8 o    1.855 --   680 h    0.870   681 h    0.859
   680   1 h    0.895 --   679 o    0.870
   681   1 h    0.893 --   679 o    0.859
   682   8 o    1.848 --   684 h    0.821   683 h    0.811
   683   1 h    0.876 --   682 o    0.811
   684   1 h    0.876 --   682 o    0.821
   685   8 o    1.833 --   687 h    0.857   686 h    0.841
   686   1 h    0.882 --   685 o    0.841
   687   1 h    0.892 --   685 o    0.857
   688   8 o    1.855 --   689 h    0.885   690 h    0.866
   689   1 h    0.901 --   688 o    0.885
   690   1 h    0.895 --   688 o    0.866
   691   8 o    1.830 --   692 h    0.901   693 h    0.813
   692   1 h    0.912 --   691 o    0.901
   693   1 h    0.877 --   691 o    0.813
   694   8 o    1.833 --   696 h    0.831   695 h    0.821
   695   1 h    0.890 --   694 o    0.821
   696   1 h    0.889 --   694 o    0.831
   697   8 o    1.869 --   699 h    0.835   698 h    0.792
   698   1 h    0.879 --   697 o    0.792
   699   1 h    0.891 --   697 o    0.835
   700   8 o    1.865 --   701 h    0.885   702 h    0.819
   701   1 h    0.905 --   700 o    0.885
   702   1 h    0.883 --   700 o    0.819
   703   8 o    1.865 --   704 h    0.852   705 h    0.806
   704   1 h    0.889 --   703 o    0.852
   705   1 h    0.878 --   703 o    0.806
   706   8 o    1.828 --   707 h    0.868   708 h    0.825
   707   1 h    0.896 --   706 o    0.868
   708   1 h    0.884 --   706 o    0.825
   709   8 o    1.828 --   711 h    0.852   710 h    0.830
   710   1 h    0.884 --   709 o    0.830
   711   1 h    0.897 --   709 o    0.852
   712   8 o    1.830 --   714 h    0.825   713 h    0.764
   713   1 h    0.872 --   712 o    0.764
   714   1 h    0.889 --   712 o    0.825
   715   8 o    1.841 --   717 h    0.829   716 h    0.800
   716   1 h    0.875 --   715 o    0.800
   717   1 h    0.887 --   715 o    0.829
   718   8 o    1.855 --   719 h    0.854   720 h    0.793
   719   1 h    0.896 --   718 o    0.854
   720   1 h    0.875 --   718 o    0.793
   721   8 o    1.833 --   723 h    0.811   722 h    0.800
   722   1 h    0.882 --   721 o    0.800
   723   1 h    0.887 --   721 o    0.811
   724   8 o    1.856 --   726 h    0.858   725 h    0.832
   725   1 h    0.879 --   724 o    0.832
   726   1 h    0.895 --   724 o    0.858
   727   8 o    1.863 --   729 h    0.862   728 h    0.818
   728   1 h    0.890 --   727 o    0.818
   729   1 h    0.894 --   727 o    0.862
   730   8 o    1.852 --   731 h    0.908   732 h    0.824
   731   1 h    0.917 --   730 o    0.908
   732   1 h    0.878 --   730 o    0.824
   733   8 o    1.815 --   734 h    0.823   735 h    0.812
   734   1 h    0.892 --   733 o    0.823
   735   1 h    0.884 --   733 o    0.812
   736   8 o    1.799 --   738 h    0.899   737 h    0.834
   737   1 h    0.887 --   736 o    0.834
   738   1 h    0.918 --   736 o    0.899
   739   8 o    1.832 --   741 h    0.877   740 h    0.826
   740   1 h    0.885 --   739 o    0.826
   741   1 h    0.899 --   739 o    0.877
   742   8 o    1.860 --   744 h    0.850   743 h    0.839
   743   1 h    0.888 --   742 o    0.839
   744   1 h    0.893 --   742 o    0.850
   745   8 o    1.882 --   746 h    0.821   747 h    0.819
   746   1 h    0.883 --   745 o    0.821
   747   1 h    0.887 --   745 o    0.819
   748   8 o    1.857 --   749 h    0.843   750 h    0.756
   749   1 h    0.889 --   748 o    0.843
   750   1 h    0.854 --   748 o    0.756
   751   8 o    1.812 --   752 h    0.890   753 h    0.804
   752   1 h    0.901 --   751 o    0.890
   753   1 h    0.868 --   751 o    0.804
   754   8 o    1.838 --   755 h    0.878   756 h    0.861
   755   1 h    0.888 --   754 o    0.878
   756   1 h    0.891 --   754 o    0.861
 ---------------------------------------------------------------------------

Topologies differ in total number of bonds
Writing topology from bond orders to xtbtopo.mol

molecular dipole:
                 x           y           z       tot (Debye)
 q only:       -1.274       1.205       0.224
   full:       -2.386       1.608      -0.057       7.314
molecular quadrupole (traceless):
                xx          xy          yy          xz          yz          zz
 q only:      140.899     -49.003     -90.987      68.430      22.551     -49.912
  q+dip:      200.602     -50.419    -141.812      83.196      24.308     -58.790
   full:      202.431     -49.507    -143.806      83.021      23.988     -58.625


           -------------------------------------------------
          | TOTAL ENERGY            -1283.285813354751 Eh   |
          | GRADIENT NORM               0.102873338923 Eh/α |
          | HOMO-LUMO GAP               5.904103220745 eV   |
           -------------------------------------------------

------------------------------------------------------------------------
 * finished run on 2022/11/24 at 12:22:37.171     
------------------------------------------------------------------------
 total:
 * wall-time:     0 d,  0 h,  0 min, 56.334 sec
 *  cpu-time:     0 d,  0 h,  1 min, 12.239 sec
 * ratio c/w:     1.282 speedup
 SCF:
 * wall-time:     0 d,  0 h,  0 min, 55.330 sec
 *  cpu-time:     0 d,  0 h,  1 min, 10.521 sec
 * ratio c/w:     1.275 speedup

