756
 energy: -1283.277747221032 gnorm: 0.015847425876 xtb: 6.5.1 (579679a)
o            5.63423069647276       -7.33210951614852       -0.41209381616736
h            4.66432633665759       -7.47682891042156       -0.40201202210272
h            5.96260889900655       -7.69511975866913       -1.23423075729160
o           -0.09512768967414        3.11778031164139        4.11066530022452
h           -0.10851194803278        3.73911963339567        4.85545295572549
h            0.33969510338432        3.59856462173579        3.38609164884844
o           -1.17461859702227       -2.06868131877374       -2.61138929702323
h           -1.73845755821090       -2.86103197356174       -2.65727961196525
h           -1.66187448311632       -1.35908179980835       -3.07420772658411
o           -5.40845328621936        2.31122195167157       -1.21542463573621
h           -4.75712355684801        2.08986456690872       -1.89508251287964
h           -5.60981975063728        3.25890583344819       -1.33634262681806
o           -3.16079985825021        2.89693466293088        0.24186416286053
h           -4.03958073131960        2.60304497299735       -0.03988010519997
h           -3.02659943190116        2.56800891784767        1.14856547633957
o           -4.36665521157433       -4.14690110876252        2.85226589367526
h           -4.71739483373419       -3.45299552104124        2.26529519393230
h           -4.39038029257356       -3.71845265791273        3.72292644159802
o           -0.05433423915893       -4.44465479853807       -3.43257281763614
h           -0.63950064676897       -4.96510968045148       -2.85340015137010
h            0.78697735528671       -4.46416125492810       -2.94976574952924
o            0.57135880959092       -5.95258596183633        0.54463443947028
h           -0.17071411536145       -6.56902166314568        0.45231067493586
h            1.13608173899761       -6.34800157805113        1.22540265311097
o           -1.46885009512451       -4.21601630205024        0.31017016022347
h           -1.40232574579624       -4.56150148319739        1.21611530657258
h           -2.41151538286656       -4.02089092435348        0.16366787491554
o            2.11163121188923        2.35087473299248       -4.41863548145218
h            1.48618906251566        2.37515322364002       -5.15233708198145
h            1.86936613236563        3.08964165255201       -3.81914089347132
o           -2.65426936244449       -0.35473924948815       -3.96285134693851
h           -2.54056665219374       -0.13524838585186       -4.90588999624593
h           -3.55952315685801       -0.70808378460596       -3.87182074138367
o           -1.06379094570478        4.35142201618799       -3.18331154326146
h           -1.14349838340941        5.02047134081536       -3.88834419995059
h           -1.09395483900622        3.46806070424376       -3.62279016048797
o           -4.06018059350853       -3.96712353934185       -0.25527228371672
h           -4.49931790476663       -3.28224697448251        0.26443236496684
h           -4.50280545824284       -4.81902910760474       -0.06560234841379
o           -3.12592305468628        1.75076938686897       -2.44526074103575
h           -2.83983623372825        1.08271084494953       -3.11100865426984
h           -2.34104051450501        2.05161383875704       -1.94422438272051
o           -0.80303043899697        2.43921225139692       -1.20406329959058
h           -0.57291761064660        3.24330704259541       -1.67635599257235
h           -0.20153900190193        1.73790571946220       -1.50859636643675
o            0.56868811143882        0.42340155081822       -2.34009325779322
h            1.40108091451178        0.89314422163688       -2.12640513561831
h            0.79108773010495       -0.52498195599389       -2.26886422140148
o           -3.44922667719069       -0.57957102452927        2.99323771529597
h           -3.25545813526796        0.32001699570961        2.66556060749689
h           -3.71088978981465       -0.43099852021339        3.92247123758466
o           -4.35019867480117       -1.57874827842856        7.48317595343310
h           -5.30291619281115       -1.46391566188230        7.57975510717246
h           -4.24354359959630       -2.52426440910590        7.24354640026494
o           -1.28929121288322       -4.73382180691012        2.99608337353234
h           -1.54325330592165       -3.78491323804692        2.98522529613971
h           -0.31021210201967       -4.70336720303542        3.04897923972463
o           -4.01992658694328        0.28098314543101        5.47236230299038
h           -3.10854086189864        0.63414318316613        5.51131629227641
h           -4.09409581116203       -0.41210486466626        6.14911979920263
o           -1.41677527945577       -2.19200277743263        2.34303430642010
h           -0.56652808583944       -1.90512855404754        2.72265418800008
h           -2.11088492175828       -1.59048713943915        2.67189156020963
o            4.50903811236480        0.06921443097860        1.60018340143991
h            3.99712996045824        0.14283868614782        2.42408760140049
h            4.42177242956110        0.93842214273573        1.15674643098034
o            1.17717860788468       -3.25553471426113        0.36387643024045
h            1.87496658854608       -3.79280767201469        0.75206346082581
h            0.38402327617170       -3.80904222980817        0.34697984400819
o            0.30796544682785        5.75741180304436       -0.49566485801382
h            0.72761300079406        6.52473218965448       -0.05656217115243
h            0.02744386575405        6.09399026141740       -1.36417204723610
o           -2.08830832495298       -0.40353246366119        8.45706208427846
h           -2.20720197002238        0.56061079058839        8.50610295232891
h           -2.94438739692852       -0.76465731365715        8.17736643222774
o           -6.26079698734140       -0.46774450460409        3.60172353584256
h           -5.95256827783833        0.13519948925684        2.89783179734783
h           -6.50966446285268        0.07591989195620        4.37028659113753
o           -7.11177288289082        0.24961922424116       -0.92679341791487
h           -6.50811591789589        1.01046728095191       -0.99389827898910
h           -7.90436389955617        0.47024711827196       -1.43165221547561
o            4.24178319126006        2.37966557902152        0.42666232151548
h            3.35093029051068        2.46563953834520        0.05194347908098
h            4.42388368356506        3.17353683706868        0.96006923872760
o           -3.16403131835040       -3.89965241910182       -2.78651868977503
h           -2.68198028177388       -4.73710481010523       -2.63335868928494
h           -3.64206366519983       -3.77009337902177       -1.95014017497175
o            1.47572067188684       -2.10563235634540       -2.04569534370620
h            2.14573589302494       -2.57067402060059       -2.56733467321010
h            1.45461732764483       -2.52023201938036       -1.16579544804118
o           -4.77629095976957       -6.97900876200828       -2.68317248376318
h           -5.03520331714849       -6.09846942270205       -2.36793537520987
h           -4.41577460401731       -6.81119236117734       -3.57964272279121
o           -5.95269295772656       -2.19109517481675       -1.10512344916989
h           -5.53054002599248       -1.40835259303702       -0.71382057757387
h           -6.88949891101229       -1.95046678884133       -1.26400373392931
o            1.54778614630069        1.33962933261319        5.28002527493453
h            1.00184013625216        0.81402152037771        5.89131596042104
h            0.96685173569846        1.97738934574371        4.81629133035882
o            3.70868228701959       -2.48830500164221        1.59206825039278
h            4.62343273375123       -2.77443042909674        1.77771172156904
h            3.74048092386918       -1.52501141611398        1.47407093594025
o            1.24423463626363       -1.82202941355725        2.74621728151393
h            1.48338379217625       -1.70829895460878        1.81298309059686
h            1.31091569757685       -2.78134726385480        2.92402574181740
o            1.70247791854928        2.03654374195519        1.70331790577140
h            1.07178601806270        2.74576276975595        1.49071078159636
h            2.26171391806496        2.35322654847468        2.43361656391595
o           -3.64008970218297        3.76712547169704       -4.12448867774186
h           -3.02671433349042        3.64625092681140       -4.86356415377282
h           -3.48246790920711        3.01150287740137       -3.51405071647660
o           -5.57709233707389        4.90879411937652       -1.72561983780214
h           -5.74419166217076        4.96724028545425       -2.67815233862871
h           -4.63786205251269        5.13817171339537       -1.56687050813023
o            1.76727832593720       -2.38839992651133        5.79733313564072
h            2.20079681181649       -1.86013809232173        6.48474001466501
h            2.45369984315284       -2.62254462278782        5.13869712934695
o           -2.17984202956044       -2.76507451846469        5.06232234203274
h           -1.99388763541320       -3.04512122588283        5.97171734486161
h           -3.12946477645739       -2.56678420276126        5.01007033008057
o           -0.29679534526446       -0.94808062613986        4.83399092271627
h           -1.01890981326870       -1.61362163609315        4.86192458052480
h            0.48346579854555       -1.41785245965585        5.18861866771535
o           -0.40071064432318        0.58679404195871        2.56259693564995
h           -0.20495903108436        0.02670144722275        3.33016264923733
h            0.42372335008801        1.03161057699012        2.30536713251505
o           -0.26648520897606       -3.54290763069953       -7.51177990417906
h           -0.23706123380603       -2.57868243525752       -7.35801397074500
h            0.11154815675067       -3.68914153453228       -8.37856132056181
o            3.69328811834774       -3.21316560719167        4.15219719147133
h            3.44637655345539       -3.12795162679790        3.21057612523222
h            4.38703565418356       -2.53613499860495        4.28481638766747
o           -8.18207713149099        1.31710774070286        2.63087962371456
h           -7.44190338416190        1.89282313918925        2.91398169454954
h           -8.83144947204403        1.31740188417516        3.34991986690426
o           -8.54748442298975        4.38334305322616        2.62796568358522
h           -8.07888712206454        5.23347604635323        2.78496027941936
h           -9.23825138220199        4.59773862953507        1.98816584044401
o           -9.48056063362168       -3.27645008022081        1.36976309991741
h          -10.16425651809039       -3.32297561830409        0.67211649134295
h           -8.93904892176103       -2.47406251986385        1.22729773043479
o            3.44324731624585       -6.86632127246279        4.49976761242475
h            4.26332345096154       -6.34995266366981        4.60580217778710
h            2.79422154976059       -6.40385719246891        5.05090725459178
o            6.53434268046285       -3.96228962809038        6.86481454690245
h            6.01493783885166       -3.21332311637733        7.18631403537464
h            7.27283145484824       -3.56646314251420        6.38461403355438
o            2.52775545448229        2.00806737609725       -1.59067494292209
h            3.34216073942437        2.00748229175165       -2.10250751803573
h            2.12309511092558        2.87066533466832       -1.78695232841175
o            4.48194091737879       -5.62565828136777       -2.53569480264578
h            4.03307314402334       -4.82273416976098       -2.89361386973909
h            3.82540211959020       -6.03479216020976       -1.96245023012944
o           -8.61472141455143        5.43716056775620       -3.07515464109605
h           -7.84770397661284        5.39162429648076       -3.65946262108589
h           -8.36346102526282        6.00171523167835       -2.32521053437389
o            6.60361099223649        2.21618163738895        1.72403324534944
h            6.60438330456471        1.24964027876225        1.82182662317615
h            7.54010324635159        2.44396763745574        1.55756039039424
o            0.31444606842664        1.87392262624314       -6.60764897626157
h            0.28561550590163        0.92180789427721       -6.83006570002646
h            0.99115593174339        2.27282458413421       -7.16934468964924
o           -8.56474676108784       -2.14276535510049       -1.61742041324052
h           -9.19726430240462       -1.71372588590554       -1.01822306083241
h           -8.68077332092335       -3.10979509778241       -1.54921419076853
o           -2.65027795831522        1.91235904007670        2.65897562550829
h           -2.74652813458536        2.44366318788418        3.46096021140240
h           -1.72853228923164        1.55912028854963        2.64819686580782
o            3.27592411876954       -5.13029348772656        1.29645733471832
h            4.08762604746203       -5.43658642020970        1.73499345473225
h            3.08196677596432       -5.81096262077586        0.63529204985941
o           -3.26231257133212       -6.47767461512057        1.87531388871379
h           -3.30019642811766       -5.56853161636774        2.20652910128472
h           -4.10010779760386       -6.59992789037833        1.40067681304911
o            2.68092929357135       -0.30829397119755       -4.04651589337629
h            2.44970976982329        0.62429753707933       -4.18292543532025
h            1.89742775986239       -0.85547508953167       -4.23124475193780
o            2.60472589664105       -1.02641968997205       -7.68990459135330
h            3.04086036637779       -1.87078865813377       -7.45832960003814
h            3.09035664488576       -0.31750230574312       -7.23278963726306
o           -1.55304867191296        1.25249353459745        5.45284434220101
h           -1.17127214473291        1.90598950586791        4.84799668721736
h           -1.03542301363644        0.42153260139164        5.33269814884793
o           -1.10886141432314       -5.66026914385671       -5.55868964458109
h           -1.18221361801765       -5.01237348286673       -6.26652741791011
h           -0.69479329123934       -5.17939733127089       -4.80554720275563
o            1.87409826032666       -0.37463193314280        0.37126373945532
h            1.92341783945070        0.52217922825362        0.73126782425499
h            2.52948632722167       -0.44572118204704       -0.34652888644990
o           -1.61835525725362       -5.78895207471784       -1.81680751294190
h           -1.45814426201757       -5.37952526520363       -0.94206018979844
h           -1.86781133320996       -6.72500131537396       -1.71533423705621
o            6.04152261468530       -3.63559334620033        2.26418490033543
h            5.93756813533001       -4.34907972000532        2.91091507373370
h            6.02117582297297       -4.05708709269546        1.37705154174109
o           -3.77060841587411       -2.25241588552729       -7.19666717841431
h           -3.81908746747605       -2.92083258141369       -7.87768915123140
h           -3.25043876653382       -2.64316107277516       -6.44898097188225
o           -6.91628171472792       -3.97699248422652        0.90094318631329
h           -7.05609703345621       -3.61673280925021        1.80000838590048
h           -6.54141287040674       -3.26479389530225        0.36081026782489
o           -0.89119530401754        1.87260599016525       -4.10504019054619
h           -0.36037018816617        1.25699070598027       -3.56505702924446
h           -0.58912776784234        1.78333267764760       -5.01280774872637
o           -9.78017190022451        2.08854964163060        0.66807631181771
h           -9.07922956335596        1.77802968863960        1.28553252883189
h           -9.56780671232693        3.01078723016796        0.41788991842964
o            5.48921399242680       -5.10119135512624        4.67787375910069
h            4.75613031613998       -4.46783430558743        4.52183326027749
h            5.84321456998370       -4.84911963491298        5.55532748259305
o            0.64368919358053        2.90915009079752        7.92427296320928
h           -0.31775288401996        2.98155160068059        7.99632402722436
h            0.91792327613791        3.41082092715399        7.13725143072677
o            3.80555539083180       -0.63360002541664       -1.57830914716918
h            4.52128561362832        0.02123614442969       -1.54864189212170
h            3.38526686382499       -0.55282107061087       -2.45574058256357
o            4.81862673654202        4.50759553899849        1.98814752914559
h            5.76286529853809        4.72008485748460        2.05657668569703
h            4.34266741919986        5.35489147038886        1.87528842391634
o           -5.09225330225554       -1.45082538429672       -3.54632933688211
h           -5.23053791582592       -1.74284276850409       -2.62607881376025
h           -5.95447870836102       -1.08820504443946       -3.81705674046486
o            5.51697722885110       -6.40409734524665        2.19569284619029
h            5.20090453307516       -7.02331019439802        2.85524198489913
h            5.76231567428912       -6.90527056844915        1.40752558341397
o           -3.81674544659358        2.32092054667177       -7.02816940534682
h           -3.30994495891320        1.49223035335525       -7.07967426356883
h           -4.69943344170030        2.14093860426977       -7.42959390050395
o            4.86148421746576       -1.67028957833558       -4.77017046553747
h            4.17642315142370       -0.98121001456623       -4.68806413355501
h            5.21277593737376       -1.64992687302465       -5.67897623772149
o           -9.37935723511100       -5.19762267117983        4.86286301173761
h           -9.17170455817623       -5.65097151031972        4.03327260170458
h           -8.51939607939569       -5.05475407573496        5.29757064150698
o          -10.37673476887694       -0.80498508051559       -0.05618955698690
h          -11.23510098184010       -1.11897708908465       -0.35687447179017
h          -10.45437602127348       -0.65064341923513        0.90272898384767
o           -8.59881478492698       -4.79196969801528       -1.02625707658697
h           -9.50122045060486       -4.92658816872574       -0.72840866492041
h           -8.05408763476560       -4.55780277704049       -0.24361999919775
o           -7.69649715864159        6.12166590694963       -0.61934078173951
h           -7.36186366368791        6.84516116982621       -0.08027685225205
h           -6.90159583789030        5.61972786211813       -0.89991222100905
o           -5.63707736340874        7.37507167866258        0.69844726740024
h           -4.99684883410690        7.96222606048807        1.17419162196198
h           -5.34806202312248        7.46578483204634       -0.23081197138586
o           -2.90497307768532        5.05159265322819       -1.22000390161144
h           -2.30056340176024        4.80649594446727       -1.93980471723080
h           -2.94335351212450        4.27222496113534       -0.61688752576681
o           -0.92705383269064        4.82893713368537        6.11828343886353
h           -0.99544091124571        4.98553024075714        7.05905146758202
h           -0.72609475773512        5.70514690799305        5.69538862499863
o            1.45477807613004        4.90204656290266        2.67133354426157
h            2.01219691161424        5.24888706392376        3.37277325518383
h            0.78052616878504        5.58250672937164        2.48249523288157
o            1.27031826194347        5.01009143257869       -5.43870685951294
h            2.03564363263891        5.59937340020650       -5.36539032111465
h            0.49926722527927        5.57339392331703       -5.53485786209195
o            2.49006720077870        3.41691208108896       -7.24531855290037
h            3.19171356838200        3.92252876697931       -7.65654244544834
h            2.06991831275903        4.01190817358720       -6.58723715485557
o            5.78578746771152        1.29837943123997       -1.44250736306856
h            5.26788949946092        1.80141248417029       -0.77757697905888
h            6.61099433055161        1.04679313778144       -0.98956190379153
o            3.72938667969864        6.19741970292139       -5.45678322063583
h            4.51798566213442        6.72648813163606       -5.59221399077106
h            4.06100579073192        5.28498768857417       -5.27315282777258
o           -1.37395734672848        6.20359108144924       -5.14333786101634
h           -2.24733890519823        6.53642845956949       -4.86919274065079
h           -1.56042935132797        5.47176859494540       -5.76219780200006
o           -5.17003953773901       -1.97823110896552        1.50927340707419
h           -4.59988777613578       -1.40846885792649        2.06583434503775
h           -6.06493563811317       -1.59583364444343        1.54550065511298
o            0.70278136019776       -8.11844045029511       -1.45436827296814
h            0.32766377860039       -8.07627927680654       -2.34381905464720
h           -0.04263310044474       -8.21554187728621       -0.85375719259110
o            8.35557060019448       -2.85373604553896       -0.67650853303559
h            7.44344704801879       -2.63870820618863       -0.42949171855314
h            8.36714510452081       -3.79672024695170       -0.91471996833519
o            1.35224656704276       -4.48684972972315        3.11354371323452
h            1.53827423648327       -4.77410761037241        4.03263753376359
h            2.05103969531061       -4.84548603204983        2.53643259537714
o            3.63147178908285        6.91642765821433       -0.72904043816175
h            4.60578393898913        6.91807164966184       -0.73440762846402
h            3.36603667140899        6.08274905016025       -0.30231425675228
o           -6.94889675230188       -1.99133028595021        6.69790211638856
h           -7.63968234091261       -1.56160064641945        6.15884852120021
h           -7.22685535081335       -2.90462414791745        6.80673758879084
o           -7.75269568442761       -2.71136125274774       -6.01262451696653
h           -7.97524911717992       -3.27541090821677       -5.24625484656792
h           -8.54598735332863       -2.19342401430077       -6.19001013480907
o           -4.39448498399257        7.70329626501081       -1.64932286748061
h           -3.55806973659291        7.86157617722618       -1.19627800991271
h           -4.17126681030207        7.28828071941448       -2.49766227827432
o           -3.82964994279612        6.41976137949338       -4.02912529848964
h           -4.64891790818711        6.50511774627452       -4.52272619129486
h           -3.71023353337524        5.45302258838473       -3.89187483382345
o            3.04157494981155       -0.18483495255174        3.79592042182556
h            2.52203097971314        0.44356004144799        4.33744119648519
h            2.38057892603701       -0.83175222313270        3.45276061006276
o           -6.03158370680743       -4.53424569052620       -2.55292485554698
h           -5.56269312240967       -4.29443150267502       -3.37911273989588
h           -5.92128189644067       -3.79273707132115       -1.94051247836484
o            1.60923132420038       -4.35522346963535       -5.66863946828040
h            1.56616448299589       -5.23307882579031       -5.22554882678907
h            0.88742818496719       -4.30297845128232       -6.31671130385392
o            1.90175675266056       -5.19168024173109       -1.69982077819567
h            2.49740375179811       -4.49373777258418       -1.37636156360510
h            1.36761466151667       -5.49430549855441       -0.93887156509431
o           -4.93292949643713        4.90746504299964        1.49244672843504
h           -5.18009892470538        5.77497050331510        1.11630528723240
h           -5.58315651141095        4.25206427120592        1.17286049298555
o           -7.71475562914769       -0.78849581204593       -3.76538712735857
h           -8.06564178939337       -1.27332858976446       -2.99575390656255
h           -8.39662189928608       -0.84653523216086       -4.46146323497877
o           -9.83995122307834        4.71964929962504        0.24544809662784
h           -9.06141871290812        5.24342629273022       -0.02902662480682
h          -10.42425359246839        4.72881388407480       -0.53428253723105
o            5.70825610650465        5.15757053029555        4.71396153425260
h            5.77899786454160        4.18159869154382        4.64325178011252
h            6.33104720992414        5.50453512880513        4.06837936924759
o           -6.99709305553037        1.74355708063769       -3.52995237710164
h           -7.32848423658460        0.82076397145196       -3.54266499022214
h           -6.06574102653860        1.65998837689089       -3.84852012974565
o            1.89006378134524        4.15879701835921        5.72779255349239
h            2.37632656803163        3.64824302072647        5.05606195921331
h            2.24868088347379        5.04961019361185        5.67221785044854
o            3.76412087337614        1.09396932040468       -6.45157698244171
h            3.32809890882850        1.94203676732369       -6.63831850801641
h            4.12457302143427        1.13845068577814       -5.54651393551075
o           -0.83847363580913       -5.78230671553463        6.57461284182673
h           -1.63212757547578       -5.83573370477799        6.01553220439668
h           -0.97940634653381       -5.01298946560932        7.13935652783168
o            6.57453709743386        3.38530226582168       -3.44064513958705
h            7.11524383416865        4.14485044265302       -3.11137285123576
h            6.43282379918129        2.79021154193233       -2.69506052206001
o           -7.78102903539917       -1.07145964489308        1.26590890805274
h           -7.93581294433875       -0.36293543062795        1.91052197834761
h           -7.57907585873573       -0.59393369329666        0.43322490560659
o            9.50422111092602        3.86954715919468        3.62351719472066
h            9.15922567373379        3.05034307979829        4.02858999583926
h           10.45929816931696        3.74298897713640        3.59734608114888
o          -11.02045400475475       -0.56964784614978        2.57038453022742
h          -10.77408009361272        0.13000762093838        3.18881554895122
h          -10.96577224262810       -1.39778876061712        3.06704009274896
o           -5.95688148433784        2.70709860464331        3.56735498373132
h           -5.31652920194821        2.32012971254532        2.95834923863312
h           -5.82929816167492        2.28725142209544        4.42220237742096
o           -6.90922798408233        3.24517446592201        0.80146941164197
h           -7.49287823883262        3.58693688541479        1.50546361262768
h           -7.39154483553405        3.26611312707956       -0.04258627314906
o           -6.85206427658546        1.13083219668470        5.70219216426736
h           -7.15694765859920        0.62329170757301        6.45251743375412
h           -7.51015878842949        1.83818973525791        5.53172262398321
o           -1.74458462024235       -3.32464732964884        7.72882930654174
h           -1.63962940728003       -2.46483344231988        8.15090343318334
h           -2.61454669812980       -3.66160028148724        7.96965340739889
o            1.58999805438447       -5.14682678969236        5.66776530116143
h            1.64545641853925       -4.22081993530467        5.95810067112474
h            0.73062355651474       -5.47493857815141        6.00138376140928
o           -1.78710029009802        3.81733481563891       -6.27948502970791
h           -1.02437354666185        3.24643887620499       -6.44297781593959
h           -2.53158668402697        3.41274868847534       -6.76044438178574
o            4.37584205492205        4.07135492407151       -1.96663281704139
h            5.18409343033487        4.00028737706494       -1.42285158189209
h            3.67862607580781        4.30015193104459       -1.34344854645904
o            5.19050733244009        1.01324922319396       -4.15095261768661
h            5.41944681699947        1.08619773592550       -3.21721498201604
h            5.98985101597910        0.70359197992305       -4.60772311310873
o            3.58350333603297        6.88602758153468        2.07282325878929
h            3.43226097266489        6.85986470456174        3.03208822649200
h            4.43913543174989        7.36142754272824        1.93064256628076
o            3.37230878772711        2.97971434915098        3.68085724870111
h            4.05411935267063        2.44409115454425        4.09568063691481
h            3.86195942319887        3.60560621148239        3.11007197085687
o            6.05886336257626        2.51913719598186        4.27958378035302
h            6.99160570823919        2.32283965319401        4.50511756552816
h            6.09035379055505        2.48340595199667        3.29040194602639
o            6.06011575336038       -4.61708279424060       -0.20736338496125
h            5.28243188471133       -4.13119672171968       -0.57086775813648
h            5.87577947996258       -5.55753868678797       -0.36374599725294
o            8.39318482320485       -2.37497745675630        2.09226952618552
h            8.70551484142776       -2.54737615886211        1.19594594864371