      -----------------------------------------------------------      
     |                   =====================                   |     
     |                           x T B                           |     
     |                   =====================                   |     
     |                         S. Grimme                         |     
     |          Mulliken Center for Theoretical Chemistry        |     
     |                    University of Bonn                     |     
      -----------------------------------------------------------      

   * xtb version 6.5.1 (579679a) compiled by 'ehlert@majestix' on 2022-07-11

   xtb is free software: you can redistribute it and/or modify it under
   the terms of the GNU Lesser General Public License as published by
   the Free Software Foundation, either version 3 of the License, or
   (at your option) any later version.
   
   xtb is distributed in the hope that it will be useful,
   but WITHOUT ANY WARRANTY; without even the implied warranty of
   MERCHANTABILITY or FITNESS FOR A PARTICULAR PURPOSE.  See the
   GNU Lesser General Public License for more details.
   
   Cite this work as:
   * C. Bannwarth, E. Caldeweyher, S. Ehlert, A. Hansen, P. Pracht,
     J. Seibert, S. Spicher, S. Grimme, WIREs Comput. Mol. Sci., 2020, 11,
     e01493. DOI: 10.1002/wcms.1493
   
   for GFN2-xTB:
   * C. Bannwarth, S. Ehlert and S. Grimme., J. Chem. Theory Comput., 2019,
     15, 1652-1671. DOI: 10.1021/acs.jctc.8b01176
   for GFN1-xTB:
   * S. Grimme, C. Bannwarth, P. Shushkov, J. Chem. Theory Comput., 2017,
     13, 1989-2009. DOI: 10.1021/acs.jctc.7b00118
   for GFN0-xTB:
   * P. Pracht, E. Caldeweyher, S. Ehlert, S. Grimme, ChemRxiv, 2019, preprint.
     DOI: 10.26434/chemrxiv.8326202.v1
   for GFN-FF:
   * S. Spicher and S. Grimme, Angew. Chem. Int. Ed., 2020, 59, 15665-15673.
     DOI: 10.1002/anie.202004239
   
   for ALPB and GBSA implicit solvation:
   * S. Ehlert, M. Stahn, S. Spicher, S. Grimme, J. Chem. Theory Comput.,
     2021, 17, 4250-4261. DOI: 10.1021/acs.jctc.1c00471
   
   for DFT-D4:
   * E. Caldeweyher, C. Bannwarth and S. Grimme, J. Chem. Phys., 2017,
     147, 034112. DOI: 10.1063/1.4993215
   * E. Caldeweyher, S. Ehlert, A. Hansen, H. Neugebauer, S. Spicher,
     C. Bannwarth and S. Grimme, J. Chem. Phys., 2019, 150, 154122.
     DOI: 10.1063/1.5090222
   * E. Caldeweyher, J.-M. Mewes, S. Ehlert and S. Grimme, Phys. Chem. Chem. Phys.
     2020, 22, 8499-8512. DOI: 10.1039/D0CP00502A
   
   for sTDA-xTB:
   * S. Grimme and C. Bannwarth, J. Chem. Phys., 2016, 145, 054103.
     DOI: 10.1063/1.4959605
   
   in the mass-spec context:
   * V. Asgeirsson, C. Bauer and S. Grimme, Chem. Sci., 2017, 8, 4879.
     DOI: 10.1039/c7sc00601b
   * J. Koopman and S. Grimme, ACS Omega 2019, 4, 12, 15120-15133.
     DOI: 10.1021/acsomega.9b02011
   
   for metadynamics refer to:
   * S. Grimme, J. Chem. Theory Comput., 2019, 155, 2847-2862
     DOI: 10.1021/acs.jctc.9b00143
   
   for SPH calculations refer to:
   * S. Spicher and S. Grimme, J. Chem. Theory Comput., 2021, 17, 1701-1714
     DOI: 10.1021/acs.jctc.0c01306
   
   with help from (in alphabetical order)
   P. Atkinson, C. Bannwarth, F. Bohle, G. Brandenburg, E. Caldeweyher
   M. Checinski, S. Dohm, S. Ehlert, S. Ehrlich, I. Gerasimov, C. Hölzer
   A. Katbashev, J. Koopman, C. Lavigne, S. Lehtola, F. März, M. Müller,
   F. Musil, H. Neugebauer, J. Pisarek, C. Plett, P. Pracht, F. Pultar,
   J. Seibert, P. Shushkov, S. Spicher, M. Stahn, M. Steiner, T. Strunk,
   J. Stückrath, T. Rose, and J. Unsleber
   
 * started run on 2022/11/17 at 06:54:59.739     

           -------------------------------------------------
          |                Calculation Setup                |
           -------------------------------------------------

          program call               : xtb solvent_cluster.coord --gfn2 --sp --lmo --chrg 0
          hostname                   : cn0363
          coordinate file            : solvent_cluster.coord
          omp threads                :                     2

   ID    Z sym.   atoms
    1    8 o      1, 4, 7, 10, 13, 16, 19, 22, 25, 28, 31, 34, 37, 40, 43,
                  46, 49, 52, 55, 58, 61, 64, 67, 70, 73, 76, 79, 82, 85, 88,
                  91, 94, 97, 100, 103, 106, 109, 112, 115, 118, 121, 124,
                  127, 130, 133, 136, 139, 142, 145, 148, 151, 154, 157, 160,
                  163, 166, 169, 172, 175, 178, 181, 184, 187, 190, 193, 196,
                  199, 202, 205, 208, 211, 214, 217, 220, 223, 226, 229, 232,
                  235, 238, 241, 244, 247, 250, 253, 256, 259, 262, 265, 268,
                  271, 274, 277, 280, 283, 286, 289, 292, 295, 298, 301, 304,
                  307, 310, 313, 316, 319, 322, 325, 328, 331, 334, 337, 340,
                  343, 346, 349, 352, 355, 358, 361, 364, 367, 370, 373, 376,
                  379, 382, 385, 388, 391, 394, 397, 400, 403, 406, 409, 412,
                  415, 418, 421, 424, 427, 430, 433, 436, 439, 442, 445, 448,
                  451, 454, 457, 460, 463, 466, 469, 472, 475, 478, 481, 484,
                  487, 490, 493, 496, 499, 502, 505, 508, 511, 514, 517, 520,
                  523, 526, 529
    2    1 h      2, 3, 5, 6, 8, 9, 11, 12, 14, 15, 17, 18, 20, 21, 23, 24,
                  26, 27, 29, 30, 32, 33, 35, 36, 38, 39, 41, 42, 44, 45, 47,
                  48, 50, 51, 53, 54, 56, 57, 59, 60, 62, 63, 65, 66, 68, 69,
                  71, 72, 74, 75, 77, 78, 80, 81, 83, 84, 86, 87, 89, 90, 92,
                  93, 95, 96, 98, 99, 101, 102, 104, 105, 107, 108, 110, 111,
                  113, 114, 116, 117, 119, 120, 122, 123, 125, 126, 128, 129,
                  131, 132, 134, 135, 137, 138, 140, 141, 143, 144, 146, 147,
                  149, 150, 152, 153, 155, 156, 158, 159, 161, 162, 164, 165,
                  167, 168, 170, 171, 173, 174, 176, 177, 179, 180, 182, 183,
                  185, 186, 188, 189, 191, 192, 194, 195, 197, 198, 200, 201,
                  203, 204, 206, 207, 209, 210, 212, 213, 215, 216, 218, 219,
                  221, 222, 224, 225, 227, 228, 230, 231, 233, 234, 236, 237,
                  239, 240, 242, 243, 245, 246, 248, 249, 251, 252, 254, 255,
                  257, 258, 260, 261, 263, 264, 266, 267, 269, 270, 272, 273,
                  275, 276, 278, 279, 281, 282, 284, 285, 287, 288, 290, 291,
                  293, 294, 296, 297, 299, 300, 302, 303, 305, 306, 308, 309,
                  311, 312, 314, 315, 317, 318, 320, 321, 323, 324, 326, 327,
                  329, 330, 332, 333, 335, 336, 338, 339, 341, 342, 344, 345,
                  347, 348, 350, 351, 353, 354, 356, 357, 359, 360, 362, 363,
                  365, 366, 368, 369, 371, 372, 374, 375, 377, 378, 380, 381,
                  383, 384, 386, 387, 389, 390, 392, 393, 395, 396, 398, 399,
                  401, 402, 404, 405, 407, 408, 410, 411, 413, 414, 416, 417,
                  419, 420, 422, 423, 425, 426, 428, 429, 431, 432, 434, 435,
                  437, 438, 440, 441, 443, 444, 446, 447, 449, 450, 452, 453,
                  455, 456, 458, 459, 461, 462, 464, 465, 467, 468, 470, 471,
                  473, 474, 476, 477, 479, 480, 482, 483, 485, 486, 488, 489,
                  491, 492, 494, 495, 497, 498, 500, 501, 503, 504, 506, 507,
                  509, 510, 512, 513, 515, 516, 518, 519, 521, 522, 524, 525,
                  527, 528, 530, 531

molecular fragmentation (1/2 indicates fragments):
111222222222222222222222222222222222222222222222222222222222222222222222
222222222222222222222222222222222222222222222222222222222222222222222222
222222222222222222222222222222222222222222222222222222222222222222222222
222222222222222222222222222222222222222222222222222222222222222222222222
222222222222222222222222222222222222222222222222222222222222222222222222
222222222222222222222222222222222222222222222222222222222222222222222222
222222222222222222222222222222222222222222222222222222222222222222222222
222222222222222222222222222
# atoms in fragment 1/2:     3   528
 fragment masses (1/2) :       18.02     3170.69
CMA distance (Bohr)    :   4.848
constraining FC (au)   :  0.0500

           -------------------------------------------------
          |                 G F N 2 - x T B                 |
           -------------------------------------------------

        Reference                      10.1021/acs.jctc.8b01176
      * Hamiltonian:
        H0-scaling (s, p, d)           1.850000    2.230000    2.230000
        zeta-weighting                 0.500000
      * Dispersion:
        s8                             2.700000
        a1                             0.520000
        a2                             5.000000
        s9                             5.000000
      * Repulsion:
        kExp                           1.500000    1.000000
        rExp                           1.000000
      * Coulomb:
        alpha                          2.000000
        third order                    shell-resolved
        anisotropic                    true
        a3                             3.000000
        a5                             4.000000
        cn-shift                       1.200000
        cn-exp                         4.000000
        max-rad                        5.000000


          ...................................................
          :                      SETUP                      :
          :.................................................:
          :  # basis functions                1062          :
          :  # atomic orbitals                1062          :
          :  # shells                          708          :
          :  # electrons                      1416          :
          :  max. iterations                   250          :
          :  Hamiltonian                  GFN2-xTB          :
          :  restarted?                      false          :
          :  GBSA solvation                  false          :
          :  PC potential                    false          :
          :  electronic temp.          300.0000000     K    :
          :  accuracy                    1.0000000          :
          :  -> integral cutoff          0.2500000E+02      :
          :  -> integral neglect         0.1000000E-07      :
          :  -> SCF convergence          0.1000000E-05 Eh   :
          :  -> wf. convergence          0.1000000E-03 e    :
          :  Broyden damping             0.4000000          :
          ...................................................

 iter      E             dE          RMSdq      gap      omega  full diag
   1   -906.5783494 -0.906578E+03  0.406E+00    8.67       0.0  T
   2   -906.6345782 -0.562288E-01  0.241E+00    7.60       1.0  T
   3   -906.6572932 -0.227150E-01  0.214E-01    6.06       1.0  T
   4   -906.6611937 -0.390057E-02  0.464E-02    6.48       1.0  T
   5   -906.6612630 -0.692365E-04  0.314E-02    6.41       1.0  T
   6   -906.6612930 -0.299679E-04  0.411E-03    6.45       1.1  T
   7   -906.6612945 -0.158815E-05  0.778E-04    6.45       5.6  T
   8   -906.6612946 -0.227301E-07  0.400E-04    6.44      10.8  T
   9   -906.6612946 -0.111497E-07  0.548E-05    6.45      79.2  T

   *** convergence criteria satisfied after 9 iterations ***

         #    Occupation            Energy/Eh            Energy/eV
      -------------------------------------------------------------
         1        2.0000           -0.6857515             -18.6602
       ...           ...                  ...                  ...
       702        2.0000           -0.3555705              -9.6756
       703        2.0000           -0.3546193              -9.6497
       704        2.0000           -0.3513021              -9.5594
       705        2.0000           -0.3418167              -9.3013
       706        2.0000           -0.3381297              -9.2010
       707        2.0000           -0.3286482              -8.9430
       708        2.0000           -0.3150971              -8.5742 (HOMO)
       709                         -0.0782432              -2.1291 (LUMO)
       710                         -0.0673278              -1.8321
       711                         -0.0538663              -1.4658
       712                         -0.0489690              -1.3325
       713                         -0.0428967              -1.1673
       ...                                ...                  ...
      1062                          0.4835123              13.1570
      -------------------------------------------------------------
                  HL-Gap            0.2368539 Eh            6.4451 eV
             Fermi-level           -0.1966701 Eh           -5.3517 eV
 
 localization/xTB-IFF output generation
 averaging CT terms over            1  occ. levels
 averaging CT terms over            1  virt. levels
 dipole moment from electron density (au)
     X       Y       Z   
   0.5940   1.7901   4.3845  total (Debye):   12.132
cpu  time for init local    0.42 s
wall time for init local    0.21 s
 doing rotations ...
 initialization of trafo matrix to unity

 converged in     15 iterations, threshold :   0.99983985D-06
 doing transformations ...
 lmo centers(Z=2) and atoms on file <lmocent.coord>
 LMO Fii/eV  ncent    charge center   contributions...
    1 LP   *******   0.00   3.50124   5.16283   1.45973   37O :  7.84  217O :  6.47   52O :  5.31  364O :  4.44  250O :  4.01  436O :  3.99   10O :  3.95  442O :  3.57    4O :  3.54  310O :  3.40   25O :  3.32  265O :  3.29
  361O :  3.23  268O :  3.18  124O :  3.18   79O :  3.08   97O :  3.06  181O :  2.81  484O :  2.44  526O :  2.43  142O :  2.35   28O :  2.30  445O :  2.29   13O :  2.29
  370O :  2.26   91O :  2.24   85O :  2.23  256O :  2.16  406O :  2.10  346O :  2.09  397O :  2.07  403O :  2.05   58O :  2.03  460O :  2.01  157O :  1.99  472O :  1.98
   76O :  1.96  109O :  1.96    7O :  1.92  178O :  1.92  229O :  1.86  430O :  1.85  469O :  1.83  487O :  1.80  313O :  1.75  214O :  1.75   70O :  1.74  343O :  1.68
  226O :  1.68   31O :  1.64  424O :  1.64  349O :  1.60  118O :  1.60  427O :  1.57  220O :  1.56  127O :  1.54  418O :  1.53   49O :  1.47   67O :  1.45  454O :  1.44
  190O :  1.44  505O :  1.39  376O :  1.36   88O :  1.32  382O :  1.31  235O :  1.30  208O :  1.29  271O :  1.29  121O :  1.27  112O :  1.23  529O :  1.23   40O :  1.17
  409O :  1.16  457O :  1.16  325O :  1.11  286O :  1.08  379O :  1.08  139O :  1.06   82O :  1.05   94O :  1.04  145O :  1.03  151O :  1.02  184O :  1.02  463O :  1.01
  247O :  1.01  358O :  1.00  481O :  0.99  415O :  0.99  316O :  0.96    1O :  0.92  319O :  0.92   61O :  0.91  160O :  0.89  352O :  0.89  292O :  0.86  355O :  0.86
  499O :  0.85   11H :  0.85  218H :  0.83  508O :  0.82  421O :  0.81  211O :  0.81  520O :  0.79   64O :  0.77  493O :  0.77  280O :  0.76  238O :  0.75   19O :  0.74
  148O :  0.73  187O :  0.72  412O :  0.72  274O :  0.71  100O :  0.70  367O :  0.70  394O :  0.69  466O :  0.68   43O :  0.68  196O :  0.63  490O :  0.63  253O :  0.63
  136O :  0.63  232O :  0.63  193O :  0.62  262O :  0.62  439O :  0.62  257H :  0.60  448O :  0.60   16O :  0.60  496O :  0.59  115O :  0.58  210H :  0.58  433O :  0.57
  517O :  0.56  475O :  0.54  391O :  0.53   22O :  0.53  373O :  0.53  202O :  0.51  514O :  0.51  511O :  0.50  259O :  0.47  241O :  0.46  175O :  0.45  130O :  0.43
  199O :  0.43  113H :  0.43  277O :  0.42  244O :  0.40  523O :  0.39  295O :  0.39  154O :  0.38  331O :  0.37  172O :  0.37  451O :  0.34  322O :  0.34   46O :  0.33
  133O :  0.33  344H :  0.31  388O :  0.30  408H :  0.29   98H :  0.29  103O :  0.28  385O :  0.28  365H :  0.28  304O :  0.28  328O :  0.27  289O :  0.27  283O :  0.27
  371H :  0.27  223O :  0.26  192H :  0.26   34O :  0.25  298O :  0.25  527H :  0.24  431H :  0.24  401H :  0.24  337O :  0.24   33H :  0.23  162H :  0.22   73O :  0.22
  198H :  0.22  340O :  0.21  437H :  0.21  180H :  0.21  163O :  0.21  215H :  0.20   45H :  0.20   93H :  0.19  400O :  0.19  307O :  0.19  438H :  0.19  314H :  0.18
  468H :  0.18  276H :  0.18  502O :  0.18  270H :  0.17  152H :  0.17  293H :  0.17  380H :  0.17   55O :  0.17  186H :  0.17  458H :  0.17  450H :  0.16  461H :  0.16
   41H :  0.16  334O :  0.16  443H :  0.15  478O :  0.15  110H :  0.15  230H :  0.15  301O :  0.14  393H :  0.14  356H :  0.14  432H :  0.14  222H :  0.14   96H :  0.14
  169O :  0.13  329H :  0.13  378H :  0.13  213H :  0.13  158H :  0.13  205O :  0.13  141H :  0.13  405H :  0.13   99H :  0.12  506H :  0.12    5H :  0.12  252H :  0.12
  317H :  0.12   54H :  0.12  101H :  0.12  518H :  0.12  500H :  0.11    6H :  0.11  212H :  0.11  129H :  0.11   80H :  0.11  117H :  0.11   60H :  0.11  166O :  0.11
  482H :  0.10  410H :  0.10  353H :  0.10  279H :  0.10   78H :  0.10  248H :  0.10  377H :  0.10  434H :  0.09  204H :  0.09    2H :  0.09  224H :  0.09  392H :  0.09
   39H :  0.09  531H :  0.09  185H :  0.09  156H :  0.09  243H :  0.09  510H :  0.09  146H :  0.08  513H :  0.08  161H :  0.08  419H :  0.08  476H :  0.08  375H :  0.08
  384H :  0.08  191H :  0.08   18H :  0.08  183H :  0.07  488H :  0.07  281H :  0.07  459H :  0.07  423H :  0.07
    2 LP   *******   0.00   7.71763  -0.97088 -13.71427  217O :  9.69   52O :  5.16   37O :  4.84  364O :  4.31  250O :  3.90  436O :  3.88   10O :  3.84  442O :  3.47    4O :  3.45  310O :  3.30   25O :  3.23  265O :  3.20
  361O :  3.14  268O :  3.09  124O :  3.09   79O :  2.99   97O :  2.99  181O :  2.73  484O :  2.37  526O :  2.36  142O :  2.28   28O :  2.25  445O :  2.23   13O :  2.22
  370O :  2.20   85O :  2.17   91O :  2.14  256O :  2.10  406O :  2.04  346O :  2.03  397O :  2.01  403O :  2.00   58O :  1.98  460O :  1.96  157O :  1.94  472O :  1.93
   76O :  1.91  109O :  1.90    7O :  1.87  178O :  1.86  430O :  1.81  229O :  1.81  469O :  1.80  487O :  1.75  313O :  1.70  214O :  1.70   70O :  1.70  343O :  1.63
  226O :  1.63   31O :  1.60  424O :  1.60  349O :  1.56  118O :  1.55  427O :  1.53  220O :  1.52  127O :  1.50  418O :  1.49   49O :  1.43   67O :  1.41  454O :  1.40
  190O :  1.40  505O :  1.35  376O :  1.32   88O :  1.29  382O :  1.27  235O :  1.26  208O :  1.26  271O :  1.25  121O :  1.24  529O :  1.20  112O :  1.20   40O :  1.13
  409O :  1.13  457O :  1.13  325O :  1.08  286O :  1.05  379O :  1.05  139O :  1.03   82O :  1.02   94O :  1.01  145O :  1.00  151O :  1.00  184O :  0.99  463O :  0.98
  247O :  0.98  358O :  0.98  481O :  0.97  415O :  0.96  316O :  0.93    1O :  0.89  319O :  0.89   61O :  0.88  160O :  0.87  352O :  0.86  292O :  0.84  355O :  0.83
  499O :  0.83   11H :  0.82  508O :  0.80  421O :  0.79  211O :  0.78  520O :  0.77  218H :  0.77   64O :  0.75  493O :  0.75  280O :  0.74  238O :  0.72   19O :  0.72
  148O :  0.71  187O :  0.70  412O :  0.70  274O :  0.69  100O :  0.69  367O :  0.68  394O :  0.67  466O :  0.66   43O :  0.66  196O :  0.62  490O :  0.61  253O :  0.61
  136O :  0.61  232O :  0.61  193O :  0.60  262O :  0.60  439O :  0.60  257H :  0.58  448O :  0.58   16O :  0.58  496O :  0.58  115O :  0.56  210H :  0.56  433O :  0.56
  517O :  0.55  475O :  0.52  391O :  0.52   22O :  0.52  373O :  0.51  202O :  0.50  514O :  0.49  511O :  0.48  259O :  0.46  241O :  0.45  175O :  0.44  130O :  0.42
  199O :  0.42  113H :  0.41  277O :  0.41  244O :  0.39  523O :  0.38  295O :  0.38  154O :  0.37  331O :  0.36  172O :  0.36  451O :  0.33  322O :  0.33   46O :  0.32
  133O :  0.32  344H :  0.30  388O :  0.29   98H :  0.28  408H :  0.28  103O :  0.28  385O :  0.27  365H :  0.27  431H :  0.27  304O :  0.27  328O :  0.26  289O :  0.26
  283O :  0.26  371H :  0.26   34O :  0.26  223O :  0.25  192H :  0.25  298O :  0.24  401H :  0.23  337O :  0.23  527H :  0.23   33H :  0.23  162H :  0.22   73O :  0.21
  198H :  0.21  340O :  0.20  437H :  0.20  180H :  0.20  163O :  0.20  215H :  0.20   45H :  0.19  400O :  0.18  307O :  0.18  438H :  0.18   93H :  0.18  314H :  0.18
  468H :  0.17  276H :  0.17  502O :  0.17  270H :  0.17  152H :  0.17  293H :  0.17  380H :  0.16   55O :  0.16  186H :  0.16  450H :  0.16  458H :  0.16   41H :  0.16
  461H :  0.15  334O :  0.15  443H :  0.15  478O :  0.15  110H :  0.14  230H :  0.14  301O :  0.14  393H :  0.14  432H :  0.14  356H :  0.14   96H :  0.13  169O :  0.13
  222H :  0.13  329H :  0.13  378H :  0.13   39H :  0.13  158H :  0.12  205O :  0.12  213H :  0.12  141H :  0.12  405H :  0.12  506H :  0.12   99H :  0.12    5H :  0.12
  252H :  0.12  317H :  0.11   54H :  0.11  101H :  0.11  518H :  0.11  500H :  0.11    6H :  0.11  212H :  0.11  129H :  0.10   80H :  0.10  117H :  0.10   60H :  0.10
  166O :  0.10  482H :  0.10  410H :  0.10   78H :  0.10  279H :  0.10  353H :  0.10  248H :  0.10  377H :  0.09  221H :  0.09  434H :  0.09    2H :  0.09  204H :  0.09
  224H :  0.09  392H :  0.09  531H :  0.08  185H :  0.08  156H :  0.08  510H :  0.08  146H :  0.08  513H :  0.08  161H :  0.08  419H :  0.08  476H :  0.08  243H :  0.08
  375H :  0.08  384H :  0.08  191H :  0.07   18H :  0.07  183H :  0.07  488H :  0.07  281H :  0.07  459H :  0.07  423H :  0.07
    3 LP   *******   0.00  -5.22006 -15.63607  -2.68569  364O :  6.34  217O :  5.29   52O :  4.34   37O :  4.07  250O :  3.28  436O :  3.27   10O :  3.23  442O :  2.92    4O :  2.90  310O :  2.78   25O :  2.72  265O :  2.69
  361O :  2.64  268O :  2.60  124O :  2.60   79O :  2.52   97O :  2.51  181O :  2.30  484O :  1.99  526O :  1.99  142O :  1.92   28O :  1.89  445O :  1.88   13O :  1.87
  370O :  1.85   91O :  1.83   85O :  1.82  256O :  1.77  406O :  1.72  346O :  1.71  397O :  1.69  403O :  1.68   58O :  1.66  460O :  1.65  157O :  1.63  472O :  1.62
   76O :  1.60  109O :  1.60    7O :  1.57  178O :  1.57  229O :  1.52  430O :  1.52  469O :  1.51  487O :  1.47  313O :  1.43  214O :  1.43   70O :  1.43  226O :  1.37
  343O :  1.37   31O :  1.35  424O :  1.34  349O :  1.31  118O :  1.31  427O :  1.28  220O :  1.28  127O :  1.26  418O :  1.25   49O :  1.20   67O :  1.19  454O :  1.18
  190O :  1.18  505O :  1.14  376O :  1.11   88O :  1.08  382O :  1.07  235O :  1.06  208O :  1.06  271O :  1.06  121O :  1.04  529O :  1.01  112O :  1.01   40O :  0.95
  409O :  0.95  457O :  0.95  325O :  0.91  139O :  0.89  286O :  0.89  379O :  0.88   82O :  0.86   94O :  0.85  145O :  0.84  151O :  0.84  184O :  0.83  463O :  0.83
  247O :  0.83  358O :  0.82  481O :  0.81  415O :  0.81  316O :  0.78    1O :  0.75  319O :  0.75   61O :  0.74  160O :  0.73  352O :  0.73  292O :  0.70  499O :  0.70
   11H :  0.69  355O :  0.69  508O :  0.69  218H :  0.68  421O :  0.67  211O :  0.66  520O :  0.65   64O :  0.63  493O :  0.63  280O :  0.62  238O :  0.62   19O :  0.61
  148O :  0.60  187O :  0.59  412O :  0.59  274O :  0.58  100O :  0.58  367O :  0.57  394O :  0.56  466O :  0.56   43O :  0.56  196O :  0.52  490O :  0.52  253O :  0.52
  136O :  0.51  232O :  0.51  193O :  0.51  262O :  0.51  439O :  0.50  257H :  0.49  448O :  0.49   16O :  0.49  496O :  0.48  115O :  0.47  210H :  0.47  433O :  0.47
  517O :  0.46  475O :  0.44  391O :  0.43   22O :  0.43  373O :  0.43  202O :  0.42  514O :  0.42  511O :  0.41  259O :  0.39  241O :  0.37  175O :  0.37  130O :  0.36
  199O :  0.35  113H :  0.35  277O :  0.34  244O :  0.33  523O :  0.32  295O :  0.32  154O :  0.31  331O :  0.30  172O :  0.30  451O :  0.28  322O :  0.28   46O :  0.27
  133O :  0.27  344H :  0.25  388O :  0.24   98H :  0.24  408H :  0.24  103O :  0.23  385O :  0.23  304O :  0.23  328O :  0.22  289O :  0.22  283O :  0.22  371H :  0.22
   34O :  0.22  223O :  0.21  192H :  0.21  298O :  0.20  431H :  0.20  401H :  0.19  337O :  0.19  527H :  0.19  365H :  0.19   33H :  0.19  162H :  0.18   73O :  0.18
  198H :  0.18  340O :  0.17  437H :  0.17  180H :  0.17  163O :  0.17  215H :  0.17   45H :  0.16   93H :  0.16  400O :  0.16  438H :  0.15  307O :  0.15  314H :  0.15
  468H :  0.15  276H :  0.14  502O :  0.14  270H :  0.14  152H :  0.14  293H :  0.14  380H :  0.14   55O :  0.14  186H :  0.14  450H :  0.14  458H :  0.14  461H :  0.13
   41H :  0.13  334O :  0.13  443H :  0.13  478O :  0.12  110H :  0.12  230H :  0.12  301O :  0.12  393H :  0.12  356H :  0.11  432H :  0.11  222H :  0.11   96H :  0.11
  169O :  0.11  329H :  0.11  378H :  0.11   39H :  0.11  158H :  0.10  213H :  0.10  205O :  0.10  405H :  0.10  141H :  0.10  506H :  0.10   99H :  0.10    5H :  0.10
  252H :  0.10  317H :  0.10   54H :  0.10  518H :  0.10  101H :  0.09  500H :  0.09    6H :  0.09  212H :  0.09  129H :  0.09   80H :  0.09  117H :  0.09   60H :  0.09
  166O :  0.09  482H :  0.08  410H :  0.08  353H :  0.08  279H :  0.08   78H :  0.08  248H :  0.08  377H :  0.08  434H :  0.08    2H :  0.07  204H :  0.07  224H :  0.07
  392H :  0.07  185H :  0.07  531H :  0.07  156H :  0.07
    4 LP   *******   0.00 -11.17753  -4.74060   1.08252  250O :  6.07  217O :  4.89   52O :  4.01   37O :  3.76  364O :  3.35  436O :  3.01   10O :  2.98  442O :  2.70    4O :  2.68  310O :  2.57   25O :  2.51  265O :  2.49
  361O :  2.44  268O :  2.40  124O :  2.40   79O :  2.33   97O :  2.32  181O :  2.12  484O :  1.84  526O :  1.83  142O :  1.76   28O :  1.75  445O :  1.73   13O :  1.73
   91O :  1.69   85O :  1.68  370O :  1.68  256O :  1.63  406O :  1.58  346O :  1.58  397O :  1.56  403O :  1.55   58O :  1.54  460O :  1.52  157O :  1.50  472O :  1.50
   76O :  1.48  109O :  1.48    7O :  1.45  178O :  1.45  229O :  1.41  430O :  1.40  469O :  1.40  487O :  1.36  313O :  1.32   70O :  1.32  214O :  1.29  226O :  1.27
  343O :  1.27   31O :  1.24  424O :  1.24  349O :  1.21  118O :  1.21  427O :  1.19  220O :  1.18  127O :  1.16  418O :  1.16   49O :  1.11   67O :  1.10  454O :  1.09
  190O :  1.08  505O :  1.05  376O :  1.03   88O :  1.00  382O :  0.99  235O :  0.98  208O :  0.98  271O :  0.97  121O :  0.96  112O :  0.94  529O :  0.93   40O :  0.88
  409O :  0.88  457O :  0.88  325O :  0.84  286O :  0.82  379O :  0.82  139O :  0.80   82O :  0.79  145O :  0.78   94O :  0.78  184O :  0.78  151O :  0.77  463O :  0.77
  247O :  0.76  358O :  0.76  481O :  0.75  415O :  0.74  316O :  0.72    1O :  0.69  319O :  0.69   61O :  0.69  160O :  0.67  352O :  0.67  292O :  0.65  355O :  0.65
  499O :  0.64   11H :  0.64  218H :  0.62  508O :  0.62  421O :  0.61  211O :  0.61  520O :  0.60   64O :  0.58  493O :  0.58  280O :  0.58  238O :  0.57   19O :  0.56
  148O :  0.55  187O :  0.55  412O :  0.55  274O :  0.54  100O :  0.53  367O :  0.53  466O :  0.52  394O :  0.51   43O :  0.51  196O :  0.48  490O :  0.48  253O :  0.48
  136O :  0.47  232O :  0.47  193O :  0.47  262O :  0.47  439O :  0.47  257H :  0.45  448O :  0.45   16O :  0.45  496O :  0.45  115O :  0.44  210H :  0.43  433O :  0.43
  517O :  0.42  475O :  0.41  391O :  0.40  373O :  0.40   22O :  0.40  202O :  0.39  514O :  0.38  511O :  0.38  259O :  0.36  241O :  0.35  175O :  0.34  130O :  0.33
  199O :  0.32  113H :  0.32  277O :  0.31  244O :  0.31  523O :  0.30  295O :  0.29  154O :  0.29  331O :  0.28  172O :  0.28  451O :  0.26  322O :  0.25   46O :  0.25
  133O :  0.25  344H :  0.23  388O :  0.22   98H :  0.22  408H :  0.22  103O :  0.21  385O :  0.21  365H :  0.21  304O :  0.21  328O :  0.20  289O :  0.20  283O :  0.20
   34O :  0.20  223O :  0.20  371H :  0.20  192H :  0.19  298O :  0.19  431H :  0.18  401H :  0.18  337O :  0.18  527H :  0.18   33H :  0.18  162H :  0.17   73O :  0.16
  198H :  0.16  340O :  0.16  437H :  0.16  180H :  0.16  163O :  0.15   45H :  0.15   93H :  0.14  400O :  0.14  307O :  0.14  438H :  0.14  314H :  0.14  276H :  0.13
  468H :  0.13  502O :  0.13  270H :  0.13  152H :  0.13  293H :  0.13  380H :  0.13   55O :  0.13  186H :  0.13  450H :  0.13  458H :  0.13  461H :  0.12   41H :  0.12
  334O :  0.12  443H :  0.12  478O :  0.12  110H :  0.11  230H :  0.11  301O :  0.11  393H :  0.11  356H :  0.11  432H :  0.11  222H :  0.10  329H :  0.10  169O :  0.10
   96H :  0.10  378H :  0.10   39H :  0.10  213H :  0.10  205O :  0.10  405H :  0.10  158H :  0.10  141H :  0.10  506H :  0.09   99H :  0.09    5H :  0.09  317H :  0.09
   54H :  0.09  101H :  0.09  518H :  0.09  500H :  0.09    6H :  0.09  212H :  0.08  129H :  0.08   80H :  0.08  117H :  0.08   60H :  0.08  166O :  0.08  482H :  0.08
  410H :  0.08  353H :  0.08   78H :  0.07  279H :  0.07  248H :  0.07  252H :  0.07  377H :  0.07  215H :  0.07
    5 LP   *******   0.00  13.72901  -8.79725  -1.46018  436O :  5.66  217O :  4.71   52O :  3.87   37O :  3.63  364O :  3.23  250O :  2.92   10O :  2.88  442O :  2.60    4O :  2.58  310O :  2.48   25O :  2.42  265O :  2.40
  361O :  2.34  268O :  2.32  124O :  2.32   79O :  2.24   97O :  2.24  181O :  2.05  484O :  1.78  526O :  1.77  142O :  1.71   28O :  1.69  445O :  1.67   13O :  1.67
  370O :  1.65   91O :  1.63   85O :  1.62  256O :  1.58  406O :  1.53  346O :  1.52  397O :  1.51  403O :  1.50   58O :  1.48  460O :  1.47  157O :  1.45  472O :  1.45
   76O :  1.43  109O :  1.43    7O :  1.40  178O :  1.40  430O :  1.35  229O :  1.35  469O :  1.35  487O :  1.31  313O :  1.28  214O :  1.27   70O :  1.27  226O :  1.22
  343O :  1.22   31O :  1.20  424O :  1.20  349O :  1.17  118O :  1.16  427O :  1.14  220O :  1.14  127O :  1.12  418O :  1.12   49O :  1.07   67O :  1.06  454O :  1.05
  190O :  1.05  505O :  1.01  376O :  0.99   88O :  0.96  382O :  0.95  235O :  0.95  208O :  0.94  271O :  0.94  121O :  0.93  529O :  0.90  112O :  0.90   40O :  0.85
  409O :  0.85  457O :  0.85  325O :  0.81  286O :  0.79  379O :  0.79  139O :  0.77   82O :  0.76   94O :  0.76  145O :  0.75  151O :  0.75  184O :  0.74  463O :  0.74
  247O :  0.74  358O :  0.73  481O :  0.72  415O :  0.72  316O :  0.70    1O :  0.67  319O :  0.67   61O :  0.66  160O :  0.65  352O :  0.65  355O :  0.63  292O :  0.62
  499O :  0.62   11H :  0.62  218H :  0.60  508O :  0.60  421O :  0.59  211O :  0.59  520O :  0.58   64O :  0.56  493O :  0.56  280O :  0.56  238O :  0.55   19O :  0.54
  148O :  0.53  187O :  0.53  412O :  0.53  274O :  0.52  100O :  0.51  367O :  0.51  394O :  0.50  466O :  0.50   43O :  0.49  196O :  0.46  490O :  0.46  253O :  0.46
  136O :  0.46  232O :  0.46  193O :  0.45  262O :  0.45  439O :  0.45  257H :  0.44  448O :  0.44   16O :  0.43  496O :  0.43  115O :  0.42  210H :  0.42  433O :  0.42
  517O :  0.41  475O :  0.39  391O :  0.39   22O :  0.39  373O :  0.38  202O :  0.37  514O :  0.37  511O :  0.36  259O :  0.34  241O :  0.33  175O :  0.33  130O :  0.32
  199O :  0.31  113H :  0.31  277O :  0.30  244O :  0.30  523O :  0.29  295O :  0.28  154O :  0.28  331O :  0.27  172O :  0.27  451O :  0.25  322O :  0.25   46O :  0.24
  133O :  0.24  344H :  0.22  388O :  0.22   98H :  0.21  408H :  0.21  103O :  0.21  385O :  0.21  365H :  0.20  304O :  0.20  328O :  0.20  289O :  0.20  283O :  0.20
  371H :  0.19   34O :  0.19  223O :  0.19  192H :  0.19  298O :  0.18  431H :  0.17  401H :  0.17  527H :  0.17   33H :  0.17  337O :  0.16  162H :  0.16   73O :  0.16
  198H :  0.16  340O :  0.15  180H :  0.15  163O :  0.15  215H :  0.15   45H :  0.14   93H :  0.14  400O :  0.14  307O :  0.14  314H :  0.13  276H :  0.13  468H :  0.13
  502O :  0.13  270H :  0.13  437H :  0.13  293H :  0.13  438H :  0.13  152H :  0.13  380H :  0.12   55O :  0.12  186H :  0.12  450H :  0.12  458H :  0.12  461H :  0.12
   41H :  0.12  334O :  0.11  443H :  0.11  478O :  0.11  110H :  0.11  230H :  0.11  301O :  0.10  393H :  0.10  356H :  0.10  432H :  0.10  222H :  0.10   96H :  0.10
  169O :  0.10  329H :  0.10  378H :  0.10   39H :  0.09  158H :  0.09  205O :  0.09  141H :  0.09  405H :  0.09  213H :  0.09  506H :  0.09   99H :  0.09    5H :  0.09
  252H :  0.09   54H :  0.09  101H :  0.08  518H :  0.08  500H :  0.08    6H :  0.08  212H :  0.08  129H :  0.08   80H :  0.08  117H :  0.08   60H :  0.08  166O :  0.08
  317H :  0.07  482H :  0.07  410H :  0.07  353H :  0.07   78H :  0.07  279H :  0.07  248H :  0.07  377H :  0.07
    6 LP   *******   0.00   7.82665  -0.21188  -9.87213  217O :  6.66   52O :  3.67   37O :  3.44  364O :  3.06  250O :  2.77  436O :  2.75   10O :  2.72  442O :  2.47    4O :  2.45  310O :  2.35   25O :  2.29  265O :  2.27
  361O :  2.23  268O :  2.19  124O :  2.19   79O :  2.13   97O :  2.12  181O :  1.94  484O :  1.68  526O :  1.68  142O :  1.62  218H :  1.60   28O :  1.60  445O :  1.58
   13O :  1.58  370O :  1.56   85O :  1.54   91O :  1.54  256O :  1.49  406O :  1.45  346O :  1.44  397O :  1.43  403O :  1.42   58O :  1.40  460O :  1.40  157O :  1.37
  472O :  1.37   76O :  1.35  109O :  1.35    7O :  1.33  178O :  1.32  430O :  1.29  229O :  1.28  469O :  1.27  487O :  1.24  313O :  1.21  214O :  1.21   70O :  1.20
  343O :  1.16  226O :  1.16   31O :  1.14  424O :  1.13  349O :  1.11  118O :  1.10  220O :  1.08  427O :  1.08  127O :  1.06  418O :  1.06   49O :  1.02   67O :  1.00
  454O :  0.99  190O :  0.99  505O :  0.96  376O :  0.94   88O :  0.91  382O :  0.90  235O :  0.90  208O :  0.89  271O :  0.89  121O :  0.88  529O :  0.85  112O :  0.85
   40O :  0.81  409O :  0.80  457O :  0.80  325O :  0.76  286O :  0.75  379O :  0.75  139O :  0.73   82O :  0.72   94O :  0.72  145O :  0.71  151O :  0.71  184O :  0.70
  463O :  0.70  247O :  0.70  358O :  0.69  481O :  0.69  415O :  0.68  316O :  0.66    1O :  0.63  319O :  0.63   61O :  0.63  160O :  0.62  352O :  0.61  292O :  0.59
  355O :  0.59  499O :  0.59   11H :  0.58  508O :  0.57  421O :  0.56  211O :  0.56  520O :  0.55   64O :  0.53  493O :  0.53  280O :  0.53   19O :  0.51  148O :  0.50
  238O :  0.50  187O :  0.50  412O :  0.50  274O :  0.49  100O :  0.49  367O :  0.48  394O :  0.47  466O :  0.47   43O :  0.47  196O :  0.44  490O :  0.44  253O :  0.44
  136O :  0.43  232O :  0.43  193O :  0.43  262O :  0.43  439O :  0.43  448O :  0.41  257H :  0.41   16O :  0.41  496O :  0.41  115O :  0.40  210H :  0.40  433O :  0.40
  517O :  0.39  475O :  0.37  391O :  0.37   22O :  0.37  373O :  0.36  202O :  0.35  514O :  0.35  511O :  0.34  259O :  0.33  241O :  0.32  175O :  0.31  130O :  0.30
  199O :  0.30  113H :  0.29  277O :  0.29  244O :  0.28  523O :  0.27  295O :  0.27  154O :  0.27  331O :  0.26  172O :  0.25  451O :  0.23  322O :  0.23   46O :  0.23
  133O :  0.23  344H :  0.21  388O :  0.20   98H :  0.20  408H :  0.20  103O :  0.20  385O :  0.19  365H :  0.19  304O :  0.19  328O :  0.19  289O :  0.19  283O :  0.19
  371H :  0.18   34O :  0.18  223O :  0.18  192H :  0.18  298O :  0.17  401H :  0.16  337O :  0.16  527H :  0.16   33H :  0.16  162H :  0.15   73O :  0.15  198H :  0.15
  340O :  0.14  437H :  0.14  431H :  0.14  180H :  0.14  163O :  0.14  215H :  0.14   45H :  0.14  400O :  0.13  307O :  0.13  438H :  0.13   93H :  0.13  314H :  0.13
  468H :  0.12  276H :  0.12  502O :  0.12  270H :  0.12  152H :  0.12  293H :  0.12   55O :  0.12  380H :  0.12  186H :  0.12  450H :  0.12  458H :  0.11   41H :  0.11
  334O :  0.11  443H :  0.11  461H :  0.11  478O :  0.11  110H :  0.10  230H :  0.10  301O :  0.10  393H :  0.10  222H :  0.10  356H :  0.10   96H :  0.09  432H :  0.09
  169O :  0.09  329H :  0.09  378H :  0.09   39H :  0.09  213H :  0.09  158H :  0.09  205O :  0.09  141H :  0.09  405H :  0.09  506H :  0.09   99H :  0.09    5H :  0.09
  252H :  0.08  317H :  0.08   54H :  0.08  101H :  0.08  518H :  0.08  500H :  0.08    6H :  0.08  212H :  0.08  129H :  0.07   80H :  0.07  117H :  0.07  166O :  0.07
   60H :  0.07  482H :  0.07
    7 LP   *******   0.00  -5.37505  -3.08681 -10.34265   52O :  5.29  217O :  3.92   37O :  3.02  364O :  2.69  250O :  2.43  436O :  2.42   10O :  2.36  442O :  2.16    4O :  2.15  310O :  2.06   25O :  2.01  265O :  1.99
  361O :  1.95  268O :  1.93  124O :  1.93   79O :  1.87   97O :  1.86  181O :  1.70  484O :  1.48  526O :  1.47  142O :  1.42   28O :  1.40  445O :  1.39   13O :  1.39
  370O :  1.37   91O :  1.36   85O :  1.35  256O :  1.31  406O :  1.27  346O :  1.26  397O :  1.25  403O :  1.24   58O :  1.23  460O :  1.22  157O :  1.21  472O :  1.20
   76O :  1.19  109O :  1.18    7O :  1.16  178O :  1.16  229O :  1.13  430O :  1.12  469O :  1.12  487O :  1.09  313O :  1.06  214O :  1.06   70O :  1.06  226O :  1.02
  343O :  1.00   31O :  1.00  424O :  0.99  349O :  0.97  118O :  0.97  427O :  0.95  220O :  0.94  127O :  0.93  418O :  0.93   49O :  0.89   67O :  0.88  454O :  0.87
  190O :  0.87  505O :  0.84  376O :  0.82   88O :  0.80  382O :  0.79  235O :  0.79  208O :  0.78  271O :  0.78  121O :  0.77  529O :  0.75  112O :  0.75   40O :  0.71
  409O :  0.70  457O :  0.70  325O :  0.67  286O :  0.66  379O :  0.65  139O :  0.64   94O :  0.63   82O :  0.63  145O :  0.62  151O :  0.62  184O :  0.62  247O :  0.61
  463O :  0.61  358O :  0.61  481O :  0.60  415O :  0.60  316O :  0.58    1O :  0.56  319O :  0.55   61O :  0.55  160O :  0.54  352O :  0.54  292O :  0.52  355O :  0.52
  499O :  0.51  218H :  0.50  508O :  0.50  421O :  0.49  211O :  0.49   11H :  0.49  520O :  0.48  493O :  0.47  280O :  0.46   64O :  0.46  238O :  0.46   19O :  0.45
  148O :  0.44  187O :  0.44  412O :  0.44  274O :  0.43  100O :  0.43  367O :  0.42  394O :  0.42  466O :  0.41   43O :  0.41  196O :  0.38  490O :  0.38  253O :  0.38
  136O :  0.38  232O :  0.38  193O :  0.38  262O :  0.37  439O :  0.37  257H :  0.36  448O :  0.36   16O :  0.36  496O :  0.36  115O :  0.35  210H :  0.35  433O :  0.35
  517O :  0.34  475O :  0.33  391O :  0.32   22O :  0.32  373O :  0.32  202O :  0.31  514O :  0.31  511O :  0.30  259O :  0.29  241O :  0.28  175O :  0.27  130O :  0.26
  199O :  0.26  113H :  0.26  277O :  0.25  244O :  0.25  523O :  0.24  295O :  0.23  154O :  0.23  331O :  0.23  172O :  0.22  451O :  0.21  322O :  0.20   46O :  0.20
  133O :  0.20  344H :  0.19  388O :  0.18   98H :  0.18  408H :  0.18  103O :  0.17  385O :  0.17  365H :  0.17  304O :  0.17  328O :  0.16  283O :  0.16  371H :  0.16
   34O :  0.16  223O :  0.16  192H :  0.16  298O :  0.15  431H :  0.15  401H :  0.14  337O :  0.14  289O :  0.14  527H :  0.14   33H :  0.14  162H :  0.13  198H :  0.13
   73O :  0.13  340O :  0.13  437H :  0.13  180H :  0.12  163O :  0.12  215H :  0.12   45H :  0.12   93H :  0.12  307O :  0.11  438H :  0.11  400O :  0.11  314H :  0.11
  468H :  0.11  276H :  0.11  502O :  0.11  270H :  0.11  152H :  0.10  293H :  0.10  380H :  0.10   55O :  0.10  186H :  0.10  450H :  0.10  458H :  0.10  461H :  0.10
   41H :  0.10  334O :  0.09  443H :  0.09  478O :  0.09  110H :  0.09  230H :  0.09  301O :  0.09  393H :  0.09  356H :  0.08  432H :  0.08   54H :  0.08  222H :  0.08
   96H :  0.08  169O :  0.08  329H :  0.08  378H :  0.08  405H :  0.08   39H :  0.08  213H :  0.08  158H :  0.08  205O :  0.08  141H :  0.08   99H :  0.08  506H :  0.08
    5H :  0.07  252H :  0.07  317H :  0.07  101H :  0.07
    8 LP   *******   0.01  -1.76340  -1.77927  -4.69587   10O :  4.03  217O :  3.78   52O :  3.06   37O :  2.91  364O :  2.59  250O :  2.35  436O :  2.33  442O :  2.09    4O :  2.07  310O :  1.99  265O :  1.92   25O :  1.92
  361O :  1.89  268O :  1.86  124O :  1.86   79O :  1.80   97O :  1.80  181O :  1.64  484O :  1.42  526O :  1.42   11H :  1.39  142O :  1.37   28O :  1.35  445O :  1.34
   13O :  1.34  370O :  1.32   91O :  1.31   85O :  1.30  256O :  1.26  406O :  1.22  346O :  1.22  397O :  1.21  403O :  1.20   58O :  1.19  460O :  1.18  157O :  1.16
  472O :  1.16   76O :  1.14  109O :  1.14    7O :  1.12  178O :  1.12  229O :  1.09  430O :  1.08  469O :  1.08  487O :  1.05  313O :  1.02  214O :  1.02   70O :  1.02
   31O :  0.98  343O :  0.98  226O :  0.98  424O :  0.96  349O :  0.94  118O :  0.93  427O :  0.92  220O :  0.91  127O :  0.90  418O :  0.90   49O :  0.86   67O :  0.85
  454O :  0.84  190O :  0.84  505O :  0.81  376O :  0.80   88O :  0.77  382O :  0.76  208O :  0.76  235O :  0.76  271O :  0.75  121O :  0.74  112O :  0.72  529O :  0.72
   40O :  0.68  409O :  0.68  457O :  0.68  325O :  0.65  286O :  0.63  379O :  0.63  139O :  0.62   82O :  0.61   94O :  0.61  145O :  0.60  151O :  0.60  184O :  0.60
  463O :  0.59  247O :  0.59  358O :  0.59  481O :  0.58  415O :  0.58  316O :  0.56    1O :  0.54  319O :  0.54   61O :  0.53  160O :  0.52  352O :  0.52  292O :  0.50
  355O :  0.50  499O :  0.50  218H :  0.48  508O :  0.48  421O :  0.48  211O :  0.47  520O :  0.46  493O :  0.45  280O :  0.45   64O :  0.44  238O :  0.44   19O :  0.43
  148O :  0.43  187O :  0.42  412O :  0.42  274O :  0.41  367O :  0.41  100O :  0.41  394O :  0.40  466O :  0.40   43O :  0.40  196O :  0.37  490O :  0.37  253O :  0.37
  136O :  0.37  232O :  0.37  193O :  0.36  262O :  0.36  439O :  0.36   16O :  0.36  257H :  0.35  448O :  0.35  496O :  0.35  115O :  0.34  210H :  0.34  433O :  0.34
  517O :  0.33  475O :  0.31  391O :  0.31   22O :  0.31  373O :  0.31  202O :  0.30  514O :  0.30  511O :  0.29  259O :  0.28  241O :  0.27  175O :  0.26  130O :  0.25
  199O :  0.25  113H :  0.25  277O :  0.24  244O :  0.24  523O :  0.23  295O :  0.23  154O :  0.22  331O :  0.22  172O :  0.21  451O :  0.20  322O :  0.20   46O :  0.19
  133O :  0.19  344H :  0.17  388O :  0.17   98H :  0.17  408H :  0.17  103O :  0.17  385O :  0.16  365H :  0.16  304O :  0.16  328O :  0.16  283O :  0.16  289O :  0.16
  371H :  0.16   34O :  0.15  223O :  0.15  192H :  0.15  298O :  0.15   33H :  0.14  431H :  0.14  401H :  0.14  337O :  0.14  527H :  0.14  162H :  0.13   73O :  0.13
  198H :  0.13  340O :  0.12  437H :  0.12  180H :  0.12  163O :  0.12  215H :  0.12   45H :  0.12   93H :  0.11  307O :  0.11  438H :  0.11  400O :  0.11  314H :  0.11
  468H :  0.10  276H :  0.10  502O :  0.10  270H :  0.10  152H :  0.10  293H :  0.10  380H :  0.10   55O :  0.10  186H :  0.10  450H :  0.10  458H :  0.10  461H :  0.10
   41H :  0.09  334O :  0.09  443H :  0.09  478O :  0.09  110H :  0.09  230H :  0.08  301O :  0.08  393H :  0.08  356H :  0.08  432H :  0.08  222H :  0.08   96H :  0.08
  169O :  0.08  329H :  0.08  378H :  0.08   39H :  0.08  213H :  0.07  158H :  0.07  205O :  0.07  405H :  0.07  141H :  0.07  506H :  0.07   99H :  0.07    5H :  0.07
  252H :  0.07   54H :  0.07
    9 LP   *******   0.01   9.45549  12.99120   1.85829  265O :  4.21  217O :  3.74   52O :  3.07   37O :  2.88  364O :  2.56  250O :  2.32  436O :  2.31   10O :  2.28  442O :  2.06    4O :  2.05  310O :  1.96   25O :  1.92
  361O :  1.86  268O :  1.84  124O :  1.84   79O :  1.78   97O :  1.77  181O :  1.62  484O :  1.40  526O :  1.40  142O :  1.36   28O :  1.34  445O :  1.32   13O :  1.32
  370O :  1.31   91O :  1.29   85O :  1.29  256O :  1.25  406O :  1.21  346O :  1.20  397O :  1.19  403O :  1.19   58O :  1.17  460O :  1.16  157O :  1.15  472O :  1.15
   76O :  1.13  109O :  1.13    7O :  1.11  178O :  1.10  229O :  1.08  430O :  1.07  469O :  1.07  487O :  1.04  313O :  1.01  214O :  1.01   70O :  1.01  343O :  0.97
  226O :  0.97   31O :  0.95  424O :  0.95  349O :  0.93  118O :  0.92  427O :  0.91  220O :  0.90  127O :  0.89  418O :  0.89   49O :  0.85   67O :  0.84  454O :  0.83
  190O :  0.83  505O :  0.80  376O :  0.79   88O :  0.76  382O :  0.76  235O :  0.75  208O :  0.75  271O :  0.74  121O :  0.73  529O :  0.71  112O :  0.71   40O :  0.67
  409O :  0.67  457O :  0.67  325O :  0.64  286O :  0.63  379O :  0.62  139O :  0.61   82O :  0.60   94O :  0.60  145O :  0.60  151O :  0.59  184O :  0.59  463O :  0.58
  247O :  0.58  358O :  0.58  481O :  0.57  415O :  0.57  316O :  0.55    1O :  0.53  319O :  0.53   61O :  0.53  160O :  0.52  352O :  0.51  292O :  0.50  355O :  0.50
  499O :  0.49   11H :  0.49  218H :  0.48  508O :  0.47  421O :  0.47  211O :  0.47  520O :  0.46   64O :  0.45  493O :  0.45  280O :  0.44  238O :  0.43   19O :  0.43
  148O :  0.42  187O :  0.42  412O :  0.42  274O :  0.41  100O :  0.41  367O :  0.41  394O :  0.40  466O :  0.39   43O :  0.39  196O :  0.37  490O :  0.37  253O :  0.36
  136O :  0.36  232O :  0.36  193O :  0.36  262O :  0.36  439O :  0.36  448O :  0.35  257H :  0.35   16O :  0.34  496O :  0.34  115O :  0.34  210H :  0.33  433O :  0.33
  517O :  0.32  475O :  0.31  391O :  0.31   22O :  0.31  373O :  0.30  202O :  0.29  514O :  0.29  511O :  0.29  259O :  0.27  241O :  0.26  175O :  0.26  130O :  0.25
  199O :  0.25  113H :  0.25  277O :  0.24  244O :  0.23  523O :  0.23  295O :  0.22  154O :  0.22  331O :  0.22  172O :  0.21  451O :  0.20  322O :  0.19   46O :  0.19
  133O :  0.19  344H :  0.18  388O :  0.17   98H :  0.17  408H :  0.17  103O :  0.16  385O :  0.16  365H :  0.16  304O :  0.16  328O :  0.16  289O :  0.16  283O :  0.15
  371H :  0.15   34O :  0.15  223O :  0.15  192H :  0.15  298O :  0.14  431H :  0.14  401H :  0.14  337O :  0.14  527H :  0.14   33H :  0.13  162H :  0.13  198H :  0.13
   73O :  0.13  180H :  0.12  340O :  0.12  437H :  0.12  163O :  0.12  215H :  0.12   45H :  0.11   93H :  0.11  400O :  0.11  307O :  0.11  438H :  0.11  314H :  0.11
  468H :  0.10  276H :  0.10  502O :  0.10  270H :  0.10  152H :  0.10  450H :  0.10  293H :  0.10  380H :  0.10   55O :  0.10  186H :  0.10  458H :  0.10  461H :  0.09
   41H :  0.09  334O :  0.09  443H :  0.09  478O :  0.09  110H :  0.09  230H :  0.08  301O :  0.08  393H :  0.08  356H :  0.08  432H :  0.08  222H :  0.08   96H :  0.08
  169O :  0.08  329H :  0.08  378H :  0.08   39H :  0.07  213H :  0.07  158H :  0.07  205O :  0.07  141H :  0.07  405H :  0.07  506H :  0.07   99H :  0.07    5H :  0.07
  252H :  0.07
   10 LP   *******   0.01   2.19814   1.02111 -13.95314  442O :  4.18  217O :  3.69   52O :  3.02   37O :  2.84  364O :  2.53  250O :  2.29  436O :  2.28   10O :  2.25    4O :  2.02  310O :  1.94   25O :  1.89  265O :  1.88
  361O :  1.84  268O :  1.81  124O :  1.81   79O :  1.76   97O :  1.75  181O :  1.60  484O :  1.39  526O :  1.38  142O :  1.34   28O :  1.32  445O :  1.31   13O :  1.30
  370O :  1.29   91O :  1.28   85O :  1.27  256O :  1.26  406O :  1.20  346O :  1.19  397O :  1.18  403O :  1.17   58O :  1.16  460O :  1.15  157O :  1.14  472O :  1.13
   76O :  1.12  109O :  1.12    7O :  1.10  178O :  1.09  229O :  1.06  430O :  1.05  469O :  1.05  487O :  1.03  313O :  1.00  214O :  1.00   70O :  0.99  343O :  0.96
  226O :  0.96   31O :  0.94  424O :  0.94  349O :  0.92  118O :  0.91  427O :  0.89  127O :  0.88  418O :  0.87  220O :  0.84   49O :  0.84   67O :  0.83  454O :  0.82
  190O :  0.82  505O :  0.79  376O :  0.78   88O :  0.75  382O :  0.75  235O :  0.74  208O :  0.74  271O :  0.74  121O :  0.72  529O :  0.70  112O :  0.70   40O :  0.67
  409O :  0.66  457O :  0.66  325O :  0.63  286O :  0.62  379O :  0.62  139O :  0.61   82O :  0.60   94O :  0.59  145O :  0.59  151O :  0.58  184O :  0.58  463O :  0.58
  247O :  0.58  358O :  0.57  481O :  0.57  415O :  0.56  316O :  0.55    1O :  0.52  319O :  0.52   61O :  0.52  160O :  0.51  352O :  0.50  292O :  0.49  355O :  0.49
  499O :  0.48   11H :  0.48  218H :  0.47  508O :  0.47  421O :  0.46  211O :  0.46  520O :  0.45   64O :  0.45  493O :  0.44  280O :  0.44  238O :  0.43   19O :  0.42
  187O :  0.41  412O :  0.41  148O :  0.41  274O :  0.40  100O :  0.40  367O :  0.40  394O :  0.39  466O :  0.39   43O :  0.39  196O :  0.36  253O :  0.36  490O :  0.36
  136O :  0.36  232O :  0.36  193O :  0.35  262O :  0.35  439O :  0.35  448O :  0.34  257H :  0.34   16O :  0.34  496O :  0.34  115O :  0.33  210H :  0.33  433O :  0.33
  517O :  0.32  475O :  0.31  391O :  0.30   22O :  0.30  373O :  0.30  202O :  0.29  514O :  0.29  511O :  0.28  259O :  0.27  241O :  0.26  175O :  0.26  130O :  0.25
  199O :  0.24  113H :  0.24  277O :  0.24  244O :  0.23  523O :  0.22  295O :  0.22  154O :  0.22  331O :  0.21  172O :  0.21  451O :  0.19  322O :  0.19   46O :  0.19
  133O :  0.19  344H :  0.17  388O :  0.17   98H :  0.17  408H :  0.16  103O :  0.16  385O :  0.16  365H :  0.16  304O :  0.16  328O :  0.15  289O :  0.15  283O :  0.15
  371H :  0.15   34O :  0.15  223O :  0.15  192H :  0.15  298O :  0.14  431H :  0.14  401H :  0.13  337O :  0.13  527H :  0.13   33H :  0.13  162H :  0.13   73O :  0.12
  198H :  0.12  340O :  0.12  437H :  0.12  180H :  0.12  163O :  0.12  215H :  0.12   93H :  0.11  400O :  0.11  307O :  0.11  438H :  0.11   45H :  0.11  314H :  0.10
  468H :  0.10  276H :  0.10  502O :  0.10  270H :  0.10  152H :  0.10  293H :  0.10   55O :  0.10  380H :  0.10  186H :  0.10  450H :  0.10  458H :  0.09  461H :  0.09
   41H :  0.09  334O :  0.09  478O :  0.09  110H :  0.08  230H :  0.08  301O :  0.08  393H :  0.08  356H :  0.08  432H :  0.08   96H :  0.08  169O :  0.08  329H :  0.08
  378H :  0.07   39H :  0.07  213H :  0.07  443H :  0.07  158H :  0.07  205O :  0.07  141H :  0.07  405H :  0.07  506H :  0.07   99H :  0.07    5H :  0.07
   11 LP   *******   0.01  -2.91037  -1.86044  -8.87283   52O :  5.07  217O :  3.67   37O :  2.83  364O :  2.52  250O :  2.28  436O :  2.27   10O :  2.23  442O :  2.03    4O :  2.01  310O :  1.93   25O :  1.89  265O :  1.87
  361O :  1.83  268O :  1.81  124O :  1.80   79O :  1.75   97O :  1.74  181O :  1.60  484O :  1.38  526O :  1.38  142O :  1.34   28O :  1.31  445O :  1.30   13O :  1.30
  370O :  1.28   91O :  1.27   85O :  1.26  256O :  1.23  406O :  1.19  346O :  1.18  397O :  1.17  403O :  1.17   58O :  1.15  460O :  1.14  157O :  1.13  472O :  1.13
   76O :  1.11  109O :  1.11    7O :  1.09  178O :  1.09  229O :  1.06  430O :  1.05  469O :  1.05  487O :  1.02  313O :  0.99  214O :  0.99   70O :  0.99  343O :  0.97
  226O :  0.95   31O :  0.93  424O :  0.93  349O :  0.91  118O :  0.91  427O :  0.89  220O :  0.89  127O :  0.87  418O :  0.87   49O :  0.84   67O :  0.82  454O :  0.82
  190O :  0.82  505O :  0.79  376O :  0.77   88O :  0.75  382O :  0.74  235O :  0.74  208O :  0.73  271O :  0.73  121O :  0.72  529O :  0.70  112O :  0.70   40O :  0.66
  409O :  0.66  457O :  0.66  325O :  0.63  286O :  0.61  379O :  0.61  139O :  0.60   82O :  0.59   94O :  0.59  145O :  0.59  151O :  0.58  184O :  0.58  247O :  0.57
  358O :  0.57  481O :  0.56  463O :  0.56  415O :  0.56  316O :  0.54    1O :  0.52  319O :  0.52   61O :  0.52  352O :  0.52  160O :  0.51  292O :  0.49  355O :  0.49
  499O :  0.48  218H :  0.47  508O :  0.47  421O :  0.46   11H :  0.46  211O :  0.46  520O :  0.45  493O :  0.44  280O :  0.43  238O :  0.43   64O :  0.42   19O :  0.42
  148O :  0.41  187O :  0.41  412O :  0.41  274O :  0.40  100O :  0.40  367O :  0.40  394O :  0.39  466O :  0.39   43O :  0.39  196O :  0.36  490O :  0.36  253O :  0.36
  136O :  0.36  232O :  0.36  193O :  0.35  262O :  0.35  439O :  0.35  257H :  0.34  448O :  0.34   16O :  0.34  496O :  0.34  115O :  0.33  210H :  0.33  433O :  0.33
  517O :  0.32  475O :  0.31  391O :  0.30   22O :  0.30  373O :  0.30  202O :  0.29  514O :  0.29  511O :  0.28  259O :  0.27  241O :  0.26  175O :  0.26  130O :  0.25
  199O :  0.24  113H :  0.24  277O :  0.24  244O :  0.23  523O :  0.22  295O :  0.22  154O :  0.22  331O :  0.21  172O :  0.21  451O :  0.19  322O :  0.19   46O :  0.19
  133O :  0.19  344H :  0.17  388O :  0.17   98H :  0.16  408H :  0.16  103O :  0.16  385O :  0.16  365H :  0.16  304O :  0.16  328O :  0.15  283O :  0.15  371H :  0.15
   34O :  0.15  223O :  0.15  192H :  0.15  298O :  0.14  289O :  0.14  431H :  0.14  337O :  0.13  401H :  0.13  527H :  0.13   33H :  0.13  162H :  0.13   73O :  0.12
  198H :  0.12  340O :  0.12  437H :  0.12  180H :  0.12  163O :  0.12  215H :  0.12   45H :  0.11  400O :  0.11   93H :  0.11  307O :  0.11  438H :  0.11  314H :  0.10
  468H :  0.10  276H :  0.10  502O :  0.10  270H :  0.10  152H :  0.10  293H :  0.10  380H :  0.10   55O :  0.10  186H :  0.10  450H :  0.10  458H :  0.09  461H :  0.09
   41H :  0.09  334O :  0.09  443H :  0.09  478O :  0.09  110H :  0.08  230H :  0.08  301O :  0.08  393H :  0.08  356H :  0.08  432H :  0.08  222H :  0.08   96H :  0.08
  169O :  0.08  329H :  0.08  378H :  0.07   39H :  0.07  158H :  0.07  213H :  0.07  205O :  0.07  405H :  0.07  141H :  0.07   99H :  0.07  506H :  0.07
   12 LP   *******   0.01  14.03713   3.33771   5.70205  268O :  4.34  217O :  3.62   52O :  2.97   37O :  2.79  364O :  2.49  250O :  2.25  436O :  2.24   10O :  2.21  442O :  2.00    4O :  1.99  310O :  1.90   25O :  1.86
  265O :  1.84  361O :  1.81  124O :  1.78   79O :  1.73   97O :  1.72  181O :  1.58  484O :  1.37  526O :  1.36  142O :  1.31   28O :  1.30  445O :  1.28   13O :  1.28
  370O :  1.27   91O :  1.25   85O :  1.25  256O :  1.21  406O :  1.17  346O :  1.17  397O :  1.16  403O :  1.15   58O :  1.14  460O :  1.13  157O :  1.12  472O :  1.11
   76O :  1.10  109O :  1.10    7O :  1.07  178O :  1.07  229O :  1.04  430O :  1.04  469O :  1.03  487O :  0.99  313O :  0.98  214O :  0.98   70O :  0.98  343O :  0.94
  226O :  0.94   31O :  0.92  424O :  0.92  349O :  0.90  118O :  0.89  427O :  0.88  220O :  0.87  127O :  0.86  418O :  0.86   49O :  0.83   67O :  0.81  454O :  0.81
  190O :  0.81  505O :  0.78  376O :  0.76   88O :  0.74  382O :  0.73  235O :  0.73  208O :  0.73  271O :  0.72  121O :  0.71  529O :  0.69  112O :  0.69   40O :  0.65
  409O :  0.65  457O :  0.65  325O :  0.62  286O :  0.61  379O :  0.61  139O :  0.59   82O :  0.59   94O :  0.58  145O :  0.58  151O :  0.57  184O :  0.57  463O :  0.57
  247O :  0.56  358O :  0.56  481O :  0.56  415O :  0.55  316O :  0.54    1O :  0.51  319O :  0.51   61O :  0.51  160O :  0.50  352O :  0.50  292O :  0.48  355O :  0.48
  499O :  0.48   11H :  0.47  218H :  0.46  508O :  0.46  421O :  0.46  211O :  0.45  520O :  0.44   64O :  0.43  493O :  0.43  280O :  0.43  238O :  0.42   19O :  0.42
  148O :  0.41  187O :  0.41  412O :  0.41  274O :  0.40  100O :  0.39  367O :  0.39  394O :  0.38  466O :  0.38   43O :  0.38  490O :  0.35  253O :  0.35  196O :  0.35
  136O :  0.35  232O :  0.35  193O :  0.35  262O :  0.35  439O :  0.35  257H :  0.34  448O :  0.34   16O :  0.33  496O :  0.33  115O :  0.33  210H :  0.32  433O :  0.32
  517O :  0.31  475O :  0.30  391O :  0.30   22O :  0.30  373O :  0.30  202O :  0.29  514O :  0.29  511O :  0.28  259O :  0.27  241O :  0.26  175O :  0.25  130O :  0.24
  199O :  0.24  113H :  0.24  277O :  0.23  244O :  0.23  523O :  0.22  295O :  0.22  154O :  0.22  331O :  0.21  172O :  0.20  451O :  0.19  322O :  0.19   46O :  0.19
  133O :  0.18  344H :  0.17  388O :  0.17   98H :  0.16  408H :  0.16  103O :  0.16  385O :  0.16  365H :  0.16  304O :  0.16  328O :  0.15  289O :  0.15  283O :  0.15
  371H :  0.15   34O :  0.15  223O :  0.15  192H :  0.14  298O :  0.14  431H :  0.13  401H :  0.13  337O :  0.13  527H :  0.13   33H :  0.13  162H :  0.12  198H :  0.12
   73O :  0.12  340O :  0.12  437H :  0.12  180H :  0.12  163O :  0.11  215H :  0.11   45H :  0.11   93H :  0.11  400O :  0.11  307O :  0.11  438H :  0.11  314H :  0.10
  468H :  0.10  276H :  0.10  502O :  0.10  152H :  0.10  293H :  0.10  380H :  0.09   55O :  0.09  186H :  0.09  450H :  0.09  458H :  0.09  461H :  0.09   41H :  0.09
  334O :  0.09  270H :  0.09  443H :  0.09  478O :  0.09  110H :  0.08  230H :  0.08  301O :  0.08  393H :  0.08  356H :  0.08  432H :  0.08  222H :  0.08   96H :  0.08
  169O :  0.08  329H :  0.08  378H :  0.07   39H :  0.07  158H :  0.07  213H :  0.07  205O :  0.07  141H :  0.07  405H :  0.07
   13 LP   *******   0.01  -8.38274   8.76277   2.05683  181O :  3.66  217O :  3.50   52O :  2.87   37O :  2.69  364O :  2.40  250O :  2.17  436O :  2.16   10O :  2.13  442O :  1.93    4O :  1.92  310O :  1.84   25O :  1.79
  265O :  1.78  361O :  1.74  268O :  1.72  124O :  1.72   79O :  1.66   97O :  1.66  484O :  1.32  526O :  1.31  142O :  1.27   28O :  1.25  445O :  1.24   13O :  1.23
  370O :  1.22   91O :  1.21   85O :  1.20  256O :  1.17  346O :  1.14  406O :  1.13  397O :  1.12  403O :  1.11   58O :  1.10  460O :  1.09  157O :  1.08   76O :  1.06
  109O :  1.06  472O :  1.04    7O :  1.04  178O :  1.04  229O :  1.01  430O :  1.00  469O :  1.00  487O :  0.97  313O :  0.95  214O :  0.94   70O :  0.94  343O :  0.91
  226O :  0.91   31O :  0.89  424O :  0.89  349O :  0.87  118O :  0.86  427O :  0.85  220O :  0.84  127O :  0.83  418O :  0.83   49O :  0.79   67O :  0.78  190O :  0.78
  454O :  0.78  505O :  0.75  376O :  0.74   88O :  0.71  382O :  0.71  235O :  0.70  208O :  0.70  271O :  0.70  121O :  0.69  529O :  0.67  112O :  0.67   40O :  0.63
  409O :  0.63  457O :  0.63  325O :  0.59  286O :  0.58  379O :  0.58  139O :  0.57   82O :  0.56   94O :  0.56  145O :  0.56  151O :  0.55  184O :  0.55  463O :  0.55
  247O :  0.55  358O :  0.54  481O :  0.53  415O :  0.53  316O :  0.52    1O :  0.50  319O :  0.49   61O :  0.49  160O :  0.48  352O :  0.48  292O :  0.47  355O :  0.46
  499O :  0.46   11H :  0.46  218H :  0.45  508O :  0.44  421O :  0.44  211O :  0.44  520O :  0.43   64O :  0.42  493O :  0.42  280O :  0.41  238O :  0.41   19O :  0.40
  187O :  0.39  148O :  0.39  412O :  0.39  274O :  0.38  100O :  0.38  367O :  0.38  394O :  0.37  466O :  0.37   43O :  0.37  196O :  0.34  253O :  0.34  490O :  0.34
  136O :  0.34  232O :  0.34  193O :  0.34  262O :  0.33  439O :  0.33  257H :  0.32  448O :  0.32   16O :  0.32  496O :  0.32  115O :  0.31  210H :  0.31  433O :  0.31
  517O :  0.30  475O :  0.29  391O :  0.29   22O :  0.29  373O :  0.29  202O :  0.28  514O :  0.27  511O :  0.27  259O :  0.26  241O :  0.25  175O :  0.24  130O :  0.23
  199O :  0.23  113H :  0.23  277O :  0.23  244O :  0.22  523O :  0.21  295O :  0.21  154O :  0.21  331O :  0.20  172O :  0.20  451O :  0.18  322O :  0.18   46O :  0.18
  133O :  0.18  344H :  0.17  388O :  0.16   98H :  0.16  408H :  0.16  103O :  0.15  385O :  0.15  365H :  0.15  304O :  0.15  328O :  0.15  289O :  0.15  283O :  0.14
  371H :  0.14   34O :  0.14  223O :  0.14  192H :  0.14  298O :  0.14  431H :  0.13  401H :  0.13  337O :  0.13  527H :  0.13   33H :  0.13  162H :  0.12   73O :  0.12
  198H :  0.12  340O :  0.11  437H :  0.11  180H :  0.11  163O :  0.11  215H :  0.11   45H :  0.11   93H :  0.10  400O :  0.10  307O :  0.10  438H :  0.10  314H :  0.10
  468H :  0.10  276H :  0.10  502O :  0.09  270H :  0.09  152H :  0.09  293H :  0.09  380H :  0.09   55O :  0.09   41H :  0.09  186H :  0.09  450H :  0.09  458H :  0.09
  461H :  0.09  334O :  0.08  443H :  0.08  478O :  0.08  110H :  0.08  230H :  0.08  301O :  0.08  393H :  0.08  356H :  0.08  432H :  0.08  222H :  0.07   96H :  0.07
  169O :  0.07  329H :  0.07  378H :  0.07
   14 LP   *******   0.01  -5.24485   1.43143   2.22413  310O :  3.33  217O :  3.27   52O :  2.68   37O :  2.52  364O :  2.24  250O :  2.03  436O :  2.02   10O :  2.00  442O :  1.80    4O :  1.79   25O :  1.68  265O :  1.66
  361O :  1.63  268O :  1.61  124O :  1.61   97O :  1.55   79O :  1.54  181O :  1.42  484O :  1.23  526O :  1.23   13O :  1.18   28O :  1.17  445O :  1.16  142O :  1.15
  370O :  1.14   91O :  1.13   85O :  1.12  256O :  1.09  406O :  1.06  346O :  1.05  397O :  1.04  403O :  1.04   58O :  1.03  460O :  1.02  157O :  1.01  472O :  1.00
   76O :  0.99  109O :  0.99    7O :  0.97  178O :  0.97  229O :  0.94  430O :  0.94  469O :  0.93  487O :  0.91  313O :  0.88  214O :  0.88   70O :  0.88  343O :  0.85
  226O :  0.85   31O :  0.83  424O :  0.83  349O :  0.81  118O :  0.81  427O :  0.79  220O :  0.79  127O :  0.78  418O :  0.77   49O :  0.75   67O :  0.73  190O :  0.73
  454O :  0.73  505O :  0.70  208O :  0.69  376O :  0.69   88O :  0.67  382O :  0.66  235O :  0.66  271O :  0.65  121O :  0.64  529O :  0.62  112O :  0.62   40O :  0.59
  409O :  0.59  457O :  0.59  325O :  0.56  286O :  0.55  379O :  0.55  139O :  0.54   82O :  0.53   94O :  0.52  145O :  0.52  151O :  0.52  184O :  0.51  463O :  0.51
  247O :  0.51  358O :  0.51  415O :  0.50  481O :  0.50  316O :  0.48    1O :  0.46  319O :  0.46   61O :  0.46  160O :  0.46  352O :  0.45  292O :  0.43  355O :  0.43
  499O :  0.43   11H :  0.43  218H :  0.42  508O :  0.41  210H :  0.41  421O :  0.41  211O :  0.41  520O :  0.40   64O :  0.39  493O :  0.39  280O :  0.39  238O :  0.38
  148O :  0.37  187O :  0.37  412O :  0.37  274O :  0.36  100O :  0.36  367O :  0.35   19O :  0.35  394O :  0.35  466O :  0.34   43O :  0.34  196O :  0.32  490O :  0.32
  253O :  0.32  136O :  0.32  232O :  0.32  193O :  0.31  262O :  0.31  439O :  0.31  257H :  0.30  448O :  0.30   16O :  0.30  496O :  0.30  115O :  0.29  433O :  0.29
  517O :  0.28  475O :  0.27  391O :  0.27   22O :  0.27  373O :  0.27  202O :  0.26  514O :  0.26  511O :  0.25  259O :  0.24  241O :  0.23  175O :  0.23  130O :  0.22
  199O :  0.22  113H :  0.22  277O :  0.21  244O :  0.20  523O :  0.20  295O :  0.20  154O :  0.19  331O :  0.19  172O :  0.18  451O :  0.17  322O :  0.17   46O :  0.17
  133O :  0.16  344H :  0.15  388O :  0.15   98H :  0.15  408H :  0.15  103O :  0.14  385O :  0.14  365H :  0.14  304O :  0.14  328O :  0.14  289O :  0.14  283O :  0.14
  371H :  0.13   34O :  0.13  223O :  0.13  192H :  0.13  298O :  0.13  431H :  0.12  401H :  0.12  527H :  0.12  337O :  0.12   33H :  0.12   73O :  0.11  198H :  0.11
  340O :  0.11  437H :  0.11  180H :  0.10  163O :  0.10  162H :  0.10  215H :  0.10   45H :  0.10  400O :  0.10   93H :  0.10  307O :  0.10  438H :  0.10  314H :  0.09
  468H :  0.09  276H :  0.09  502O :  0.09  270H :  0.09   41H :  0.09  152H :  0.09  293H :  0.09  380H :  0.09   55O :  0.09  186H :  0.08  450H :  0.08  458H :  0.08
  461H :  0.08  334O :  0.08  443H :  0.08  478O :  0.08  110H :  0.08  230H :  0.07  301O :  0.07  393H :  0.07  356H :  0.07  432H :  0.07
   15 LP   *******   0.01   2.13480  -2.48458  -5.58393   10O :  3.68  217O :  3.27   52O :  2.65   37O :  2.52  364O :  2.24  250O :  2.03  436O :  2.02  442O :  1.80    4O :  1.79  310O :  1.72   25O :  1.67  265O :  1.66
  361O :  1.63  268O :  1.61  124O :  1.61   79O :  1.56   97O :  1.55  181O :  1.42  484O :  1.23  526O :  1.23  142O :  1.19   28O :  1.17  445O :  1.16   13O :  1.16
  370O :  1.14   91O :  1.13   85O :  1.12  256O :  1.09  406O :  1.06  346O :  1.05  397O :  1.04  403O :  1.04   58O :  1.03  460O :  1.02  157O :  1.01  472O :  1.00
   76O :  0.99  109O :  0.99    7O :  0.97  178O :  0.97  229O :  0.94  430O :  0.94  469O :  0.93  487O :  0.91  313O :  0.88  214O :  0.88   70O :  0.88  343O :  0.85
  226O :  0.85   31O :  0.83  424O :  0.83  349O :  0.81  118O :  0.81  220O :  0.79  427O :  0.79  127O :  0.78  418O :  0.77   49O :  0.74   67O :  0.73  454O :  0.73
  190O :  0.73  505O :  0.70  376O :  0.69   88O :  0.67  382O :  0.66  208O :  0.66  235O :  0.66  271O :  0.65  121O :  0.64  529O :  0.62  112O :  0.62   40O :  0.59
  409O :  0.59  457O :  0.59  325O :  0.56  286O :  0.55  379O :  0.55  139O :  0.54   82O :  0.53   94O :  0.52  145O :  0.52  151O :  0.52  184O :  0.51  463O :  0.51
  247O :  0.51  358O :  0.51  481O :  0.50  415O :  0.50  316O :  0.48    1O :  0.46  319O :  0.46   61O :  0.46  160O :  0.45  352O :  0.45  292O :  0.43  355O :  0.43
  499O :  0.43  218H :  0.42  508O :  0.41  421O :  0.41  211O :  0.41  520O :  0.40   64O :  0.39   11H :  0.39  493O :  0.39  280O :  0.39  238O :  0.38   19O :  0.37
  148O :  0.37  187O :  0.37  412O :  0.37  274O :  0.36  100O :  0.36  367O :  0.35  394O :  0.35  466O :  0.34   43O :  0.34  196O :  0.32  490O :  0.32  253O :  0.32
  136O :  0.32  232O :  0.32  193O :  0.31   16O :  0.31  262O :  0.31  439O :  0.31  257H :  0.30  448O :  0.30  496O :  0.30  115O :  0.29  210H :  0.29  433O :  0.29
  517O :  0.28  475O :  0.27  391O :  0.27   22O :  0.27  373O :  0.27  202O :  0.26  514O :  0.26  511O :  0.25  259O :  0.24  241O :  0.23  175O :  0.23  130O :  0.22
  199O :  0.22  113H :  0.22  277O :  0.21  244O :  0.20  523O :  0.20  295O :  0.20  154O :  0.19  331O :  0.19  172O :  0.18  451O :  0.17  322O :  0.17   46O :  0.17
  133O :  0.17  344H :  0.15  388O :  0.15   98H :  0.15  408H :  0.15  103O :  0.14  385O :  0.14  365H :  0.14  304O :  0.14  328O :  0.14  289O :  0.14  283O :  0.14
  371H :  0.13   34O :  0.13  223O :  0.13  192H :  0.13  298O :  0.13  431H :  0.12  401H :  0.12  337O :  0.12  527H :  0.12   33H :  0.12  162H :  0.11   73O :  0.11
  198H :  0.11  340O :  0.11  437H :  0.11  180H :  0.10  163O :  0.10  215H :  0.10   45H :  0.10   18H :  0.10   93H :  0.10  307O :  0.10  438H :  0.10  400O :  0.10
  314H :  0.09  468H :  0.09  276H :  0.09  502O :  0.09  270H :  0.09  152H :  0.09  293H :  0.09  380H :  0.09   55O :  0.09  186H :  0.08  450H :  0.08  458H :  0.08
  461H :  0.08   41H :  0.08  334O :  0.08  443H :  0.08  478O :  0.08  110H :  0.08  230H :  0.07  301O :  0.07  393H :  0.07  356H :  0.07  432H :  0.07
   16 LP   *******   0.01   1.42922  -1.28541  15.38150  124O :  3.83  217O :  3.20   52O :  2.63   37O :  2.47  364O :  2.20  250O :  1.99  436O :  1.98   10O :  1.96  442O :  1.77    4O :  1.76  310O :  1.68   25O :  1.64
  265O :  1.63  361O :  1.60  268O :  1.58   79O :  1.53   97O :  1.52  181O :  1.39  484O :  1.21  526O :  1.20  142O :  1.16   28O :  1.15  445O :  1.14   13O :  1.13
  370O :  1.12   91O :  1.11   85O :  1.10  256O :  1.07  406O :  1.04  346O :  1.03  397O :  1.02  403O :  1.02   58O :  1.01  460O :  1.00  157O :  0.99  472O :  0.98
   76O :  0.97  109O :  0.97    7O :  0.95  178O :  0.95  229O :  0.92  430O :  0.92  469O :  0.91  487O :  0.89  313O :  0.87  214O :  0.87   70O :  0.86  343O :  0.83
  226O :  0.83   31O :  0.81  424O :  0.81  349O :  0.79  118O :  0.79  427O :  0.78  220O :  0.77  127O :  0.77  418O :  0.76   49O :  0.73   67O :  0.72  454O :  0.71
  190O :  0.71  505O :  0.69  376O :  0.67   88O :  0.66  382O :  0.65  208O :  0.64  271O :  0.64  235O :  0.63  121O :  0.63  529O :  0.61  112O :  0.61   40O :  0.58
  409O :  0.58  457O :  0.58  325O :  0.55  286O :  0.54  379O :  0.54  139O :  0.53   82O :  0.52   94O :  0.51  145O :  0.51  151O :  0.51  184O :  0.50  463O :  0.50
  247O :  0.50  358O :  0.50  481O :  0.49  415O :  0.49  316O :  0.47    1O :  0.46  319O :  0.45   61O :  0.45  160O :  0.44  352O :  0.44  292O :  0.43  355O :  0.43
   11H :  0.42  499O :  0.42  218H :  0.41  508O :  0.41  421O :  0.40  211O :  0.40  520O :  0.39   64O :  0.38  493O :  0.38  280O :  0.38  238O :  0.37   19O :  0.37
  148O :  0.36  187O :  0.36  412O :  0.36  274O :  0.35  100O :  0.35  367O :  0.35  394O :  0.34  466O :  0.34   43O :  0.34  196O :  0.31  490O :  0.31  253O :  0.31
  136O :  0.31  232O :  0.31  193O :  0.31  262O :  0.31  439O :  0.31  257H :  0.30  448O :  0.30   16O :  0.30  496O :  0.29  115O :  0.29  210H :  0.29  433O :  0.28
  517O :  0.28  475O :  0.27  391O :  0.26   22O :  0.26  373O :  0.26  202O :  0.25  514O :  0.25  511O :  0.25  259O :  0.23  241O :  0.23  175O :  0.22  130O :  0.22
  199O :  0.21  113H :  0.21  277O :  0.21  244O :  0.20  523O :  0.19  295O :  0.19  154O :  0.19  331O :  0.18  172O :  0.18  451O :  0.17  322O :  0.17   46O :  0.16
  133O :  0.16  344H :  0.15  388O :  0.15   98H :  0.14  408H :  0.14  103O :  0.14  385O :  0.14  365H :  0.14  304O :  0.14  328O :  0.13  289O :  0.13  283O :  0.13
  371H :  0.13   34O :  0.13  223O :  0.13  192H :  0.13  298O :  0.12  431H :  0.12  401H :  0.12  337O :  0.12  527H :  0.12   33H :  0.12  162H :  0.11   73O :  0.11
  198H :  0.11  340O :  0.10  437H :  0.10  180H :  0.10  163O :  0.10  215H :  0.10   45H :  0.10   93H :  0.09  400O :  0.09  307O :  0.09  438H :  0.09  314H :  0.09
  468H :  0.09  276H :  0.09  502O :  0.09  270H :  0.09  152H :  0.09  293H :  0.08  380H :  0.08   55O :  0.08  186H :  0.08  450H :  0.08  458H :  0.08  461H :  0.08
   41H :  0.08  334O :  0.08  443H :  0.08  478O :  0.08  110H :  0.07  230H :  0.07  301O :  0.07
   17 LP   *******   0.01  -6.27260  -5.00896  -3.19121   25O :  3.34  217O :  3.21   52O :  2.64   37O :  2.47  364O :  2.20  250O :  1.99  436O :  1.98   10O :  1.95  442O :  1.77    4O :  1.76  310O :  1.69  265O :  1.63
  361O :  1.60  268O :  1.58  124O :  1.58   79O :  1.53   97O :  1.52  181O :  1.40  484O :  1.21  526O :  1.20  142O :  1.17   28O :  1.15  445O :  1.14   13O :  1.14
  370O :  1.12   91O :  1.11   85O :  1.11  256O :  1.07  406O :  1.04  346O :  1.04  397O :  1.03  403O :  1.02   58O :  1.01  460O :  1.00  157O :  0.99  472O :  0.98
   76O :  0.97  109O :  0.97    7O :  0.95  178O :  0.95  229O :  0.92  430O :  0.92  469O :  0.92  487O :  0.89  313O :  0.87   70O :  0.87  214O :  0.86   31O :  0.84
  226O :  0.83  343O :  0.83  424O :  0.82  349O :  0.80  118O :  0.79  427O :  0.78  220O :  0.77  127O :  0.76  418O :  0.76   49O :  0.73   67O :  0.72  454O :  0.71
  190O :  0.71  505O :  0.69  376O :  0.68   88O :  0.66  382O :  0.65  112O :  0.65  208O :  0.64  235O :  0.64  271O :  0.64  121O :  0.63  529O :  0.61   40O :  0.58
  409O :  0.58  457O :  0.58  325O :  0.55  379O :  0.54  286O :  0.54  139O :  0.53   82O :  0.52   94O :  0.52  145O :  0.51  151O :  0.51  184O :  0.51  463O :  0.50
  247O :  0.50  358O :  0.50  481O :  0.49  415O :  0.49  316O :  0.48  319O :  0.45   61O :  0.45    1O :  0.45  160O :  0.44  352O :  0.44  292O :  0.43  355O :  0.43
  499O :  0.42  218H :  0.41  508O :  0.41   11H :  0.40  421O :  0.40  211O :  0.40  520O :  0.39   64O :  0.38  493O :  0.38  280O :  0.38  238O :  0.37   19O :  0.36
  148O :  0.36  187O :  0.36  412O :  0.36  113H :  0.36  274O :  0.35  100O :  0.35  367O :  0.35  394O :  0.34  466O :  0.34   43O :  0.34  196O :  0.32  253O :  0.31
  490O :  0.31  136O :  0.31  232O :  0.31  193O :  0.31  262O :  0.31  439O :  0.31  257H :  0.30  448O :  0.30   16O :  0.30  496O :  0.29  115O :  0.29  210H :  0.29
  433O :  0.29  517O :  0.28  475O :  0.27  391O :  0.26   22O :  0.26  373O :  0.26  202O :  0.25  514O :  0.25  511O :  0.25  259O :  0.23  241O :  0.23  175O :  0.22
  130O :  0.22  199O :  0.21  277O :  0.21  244O :  0.20  523O :  0.19  295O :  0.19  154O :  0.19  331O :  0.19  172O :  0.18  451O :  0.17  322O :  0.17   46O :  0.17
  133O :  0.16  388O :  0.15   98H :  0.14  408H :  0.14  103O :  0.14  385O :  0.14  365H :  0.14  304O :  0.14  328O :  0.13  289O :  0.13  283O :  0.13  371H :  0.13
   34O :  0.13  223O :  0.13  192H :  0.13  298O :  0.13  401H :  0.12  431H :  0.12   33H :  0.12  337O :  0.12  527H :  0.12  344H :  0.11  162H :  0.11   73O :  0.11
  198H :  0.11  340O :  0.10  437H :  0.10  180H :  0.10  163O :  0.10  215H :  0.10   45H :  0.10  400O :  0.09   93H :  0.09  307O :  0.09  438H :  0.09  314H :  0.09
  468H :  0.09  276H :  0.09  502O :  0.09  270H :  0.09  152H :  0.09  293H :  0.08  380H :  0.08   55O :  0.08  186H :  0.08  450H :  0.08  458H :  0.08  461H :  0.08
   41H :  0.08  334O :  0.08  443H :  0.08  478O :  0.08  110H :  0.07  230H :  0.07  301O :  0.07
   18 LP   *******   0.01  12.93477   5.86747   0.87196  484O :  3.26  217O :  3.15   52O :  2.59   37O :  2.43  364O :  2.16  250O :  1.96  436O :  1.95   10O :  1.92  442O :  1.74    4O :  1.73  310O :  1.66   25O :  1.62
  265O :  1.60  361O :  1.57  268O :  1.55  124O :  1.55   79O :  1.50   97O :  1.50  181O :  1.37  526O :  1.18  142O :  1.14   28O :  1.13  445O :  1.12   13O :  1.11
  370O :  1.10   91O :  1.09   85O :  1.09  256O :  1.05  406O :  1.02  346O :  1.02  397O :  1.01  403O :  1.00   58O :  0.99  460O :  0.98  157O :  0.97  472O :  0.97
   76O :  0.96  109O :  0.95    7O :  0.93  178O :  0.93  229O :  0.91  430O :  0.90  469O :  0.90  487O :  0.88  313O :  0.85  214O :  0.85   70O :  0.85  343O :  0.82
  226O :  0.82   31O :  0.80  424O :  0.80  349O :  0.78  118O :  0.78  427O :  0.76  220O :  0.76  127O :  0.75  418O :  0.75   49O :  0.72   67O :  0.71  454O :  0.70
  190O :  0.70  505O :  0.68  376O :  0.66   88O :  0.64  382O :  0.64  235O :  0.63  208O :  0.63  271O :  0.63  121O :  0.62  529O :  0.60  112O :  0.60   40O :  0.57
  409O :  0.57  457O :  0.57  325O :  0.54  286O :  0.53  379O :  0.53  139O :  0.52   82O :  0.51   94O :  0.51  145O :  0.50  151O :  0.50  184O :  0.50  463O :  0.49
  247O :  0.49  358O :  0.49  481O :  0.48  415O :  0.48  316O :  0.47    1O :  0.45  319O :  0.45   61O :  0.44  160O :  0.44  352O :  0.43  292O :  0.42  355O :  0.42
  499O :  0.41   11H :  0.41  218H :  0.40  508O :  0.40  421O :  0.40  211O :  0.39  520O :  0.39   64O :  0.38  493O :  0.38  280O :  0.37  238O :  0.37   19O :  0.36
  148O :  0.35  187O :  0.35  412O :  0.35  274O :  0.35  100O :  0.34  367O :  0.34  196O :  0.33  394O :  0.33  466O :  0.33   43O :  0.33  490O :  0.31  253O :  0.31
  136O :  0.31  232O :  0.31  193O :  0.30  262O :  0.30  439O :  0.30  448O :  0.29  257H :  0.29   16O :  0.29  115O :  0.28  496O :  0.28  210H :  0.28  433O :  0.28
  517O :  0.27  475O :  0.26  391O :  0.26   22O :  0.26  373O :  0.26  202O :  0.25  514O :  0.25  511O :  0.24  259O :  0.23  198H :  0.22  241O :  0.22  175O :  0.22
  130O :  0.21  199O :  0.21  113H :  0.21  277O :  0.20  244O :  0.20  523O :  0.19  295O :  0.19  154O :  0.19  331O :  0.18  172O :  0.18  451O :  0.17  322O :  0.16
   46O :  0.16  133O :  0.16  344H :  0.15  388O :  0.14   98H :  0.14  408H :  0.14  103O :  0.14  385O :  0.14  365H :  0.14  304O :  0.14  328O :  0.13  289O :  0.13
  283O :  0.13  371H :  0.13   34O :  0.13  223O :  0.13  192H :  0.13  298O :  0.12  431H :  0.12  401H :  0.11  337O :  0.11  527H :  0.11   33H :  0.11  162H :  0.11
   73O :  0.11  340O :  0.10  180H :  0.10  437H :  0.10  163O :  0.10  215H :  0.10   45H :  0.10   93H :  0.09  400O :  0.09  307O :  0.09  438H :  0.09  314H :  0.09
  468H :  0.09  276H :  0.09  502O :  0.09  270H :  0.08  152H :  0.08  293H :  0.08  380H :  0.08   55O :  0.08  450H :  0.08  186H :  0.08  458H :  0.08  461H :  0.08
  478O :  0.08   41H :  0.08  334O :  0.08  443H :  0.08  110H :  0.07  230H :  0.07  301O :  0.07
   19 LP   *******   0.01  -6.73471  -5.03572   7.59652   79O :  3.44  217O :  3.15   52O :  2.59   37O :  2.42  364O :  2.16  250O :  1.96  436O :  1.94   10O :  1.92  442O :  1.74    4O :  1.73  310O :  1.64   25O :  1.62
  265O :  1.60  361O :  1.57  268O :  1.55  124O :  1.55   97O :  1.50  181O :  1.37  484O :  1.19  526O :  1.18  142O :  1.14   28O :  1.13   13O :  1.12  445O :  1.12
  370O :  1.10   91O :  1.09   85O :  1.08  256O :  1.05  406O :  1.02  346O :  1.02  397O :  1.01  403O :  1.00   58O :  0.99  460O :  0.98  157O :  0.97  472O :  0.97
   76O :  0.96  109O :  0.95    7O :  0.94  178O :  0.93  229O :  0.91  430O :  0.90  469O :  0.90  487O :  0.88  214O :  0.87   70O :  0.85  313O :  0.82  343O :  0.82
  226O :  0.82   31O :  0.80  424O :  0.80  349O :  0.78  118O :  0.78  427O :  0.76  220O :  0.76  127O :  0.75  418O :  0.75   49O :  0.72   67O :  0.71  454O :  0.70
  190O :  0.70  505O :  0.68  376O :  0.66   88O :  0.64  382O :  0.64  235O :  0.63  208O :  0.63  271O :  0.63  121O :  0.62  529O :  0.60  112O :  0.60   40O :  0.57
  409O :  0.57  457O :  0.57  325O :  0.54  286O :  0.53  379O :  0.53  139O :  0.52   82O :  0.51   94O :  0.51  145O :  0.50  151O :  0.50  184O :  0.50  463O :  0.49
  247O :  0.49  358O :  0.49  481O :  0.48  415O :  0.48  316O :  0.47    1O :  0.45  319O :  0.45   61O :  0.44  352O :  0.43  292O :  0.42  160O :  0.42  355O :  0.42
  499O :  0.41   11H :  0.41  218H :  0.40  508O :  0.40  421O :  0.40  211O :  0.39  520O :  0.38   64O :  0.38  493O :  0.38  280O :  0.37  238O :  0.37   19O :  0.36
  148O :  0.35  187O :  0.35  412O :  0.35  274O :  0.35  100O :  0.34  367O :  0.34  394O :  0.33  466O :  0.33   43O :  0.33  196O :  0.31  490O :  0.31  253O :  0.31
  136O :  0.31  232O :  0.31  193O :  0.30  262O :  0.30  439O :  0.30  257H :  0.29  448O :  0.29   16O :  0.29  496O :  0.29  115O :  0.28  210H :  0.28  433O :  0.28
  517O :  0.27  475O :  0.26  391O :  0.26   22O :  0.26  373O :  0.26  202O :  0.25  514O :  0.25  511O :  0.24  259O :  0.23  241O :  0.22  175O :  0.22  130O :  0.21
  199O :  0.21  113H :  0.21  277O :  0.20  244O :  0.20  523O :  0.19  295O :  0.19  154O :  0.19  331O :  0.18  172O :  0.18  322O :  0.16   46O :  0.16  451O :  0.16
  133O :  0.16  344H :  0.15  388O :  0.14   98H :  0.14  408H :  0.14  103O :  0.14  385O :  0.14  365H :  0.14  304O :  0.14  328O :  0.13  289O :  0.13  283O :  0.13
  371H :  0.13   34O :  0.13  223O :  0.13  192H :  0.13  298O :  0.12  431H :  0.12  401H :  0.11  337O :  0.11  527H :  0.11   33H :  0.11   73O :  0.11  198H :  0.11
  340O :  0.10  437H :  0.10  180H :  0.10  163O :  0.10  215H :  0.10   45H :  0.10   93H :  0.09  162H :  0.09  400O :  0.09  438H :  0.09  307O :  0.09  468H :  0.09
  276H :  0.09  502O :  0.09  270H :  0.09  152H :  0.08  293H :  0.08  380H :  0.08   55O :  0.08  450H :  0.08  186H :  0.08  458H :  0.08  461H :  0.08   41H :  0.08
  334O :  0.08  443H :  0.08  478O :  0.07  110H :  0.07  230H :  0.07
   20 LP   *******   0.01  20.07444  -7.74664  -1.91120  361O :  3.69  217O :  3.09   52O :  2.54   37O :  2.38  364O :  2.12  250O :  1.92   10O :  1.89  436O :  1.88  442O :  1.71    4O :  1.69  310O :  1.62   25O :  1.59
  265O :  1.57  268O :  1.52  124O :  1.52   79O :  1.47   97O :  1.47  181O :  1.34  484O :  1.16  526O :  1.16  142O :  1.12   28O :  1.11  445O :  1.10   13O :  1.09
  370O :  1.08   91O :  1.07   85O :  1.06  256O :  1.03  406O :  1.00  346O :  1.00  397O :  0.99  403O :  0.98   58O :  0.97  460O :  0.96  157O :  0.95  472O :  0.95
   76O :  0.94  109O :  0.93    7O :  0.92  178O :  0.92  229O :  0.89  430O :  0.89  469O :  0.88  487O :  0.86  313O :  0.84  214O :  0.83   70O :  0.83  343O :  0.80
  226O :  0.80   31O :  0.79  424O :  0.78  349O :  0.77  118O :  0.76  427O :  0.75  220O :  0.75  127O :  0.74  418O :  0.73   49O :  0.70   67O :  0.69  454O :  0.69
  190O :  0.69  505O :  0.66  376O :  0.65   88O :  0.63  382O :  0.62  235O :  0.62  208O :  0.62  271O :  0.62  121O :  0.61  529O :  0.59  112O :  0.59   40O :  0.56
  409O :  0.56  457O :  0.55  325O :  0.53  286O :  0.52  379O :  0.52  139O :  0.51   82O :  0.50   94O :  0.50  145O :  0.49  151O :  0.49  184O :  0.49  463O :  0.48
  247O :  0.48  358O :  0.48  481O :  0.47  415O :  0.47    1O :  0.44  316O :  0.44  319O :  0.44   61O :  0.43  160O :  0.43  352O :  0.42  292O :  0.41  355O :  0.41
  499O :  0.41   11H :  0.40  218H :  0.39  508O :  0.39  421O :  0.39  211O :  0.39  520O :  0.38   64O :  0.37  493O :  0.37  280O :  0.36  238O :  0.36   19O :  0.35
  148O :  0.35  187O :  0.35  412O :  0.35  274O :  0.34  100O :  0.34  367O :  0.34  394O :  0.33  466O :  0.33   43O :  0.32  196O :  0.30  490O :  0.30  253O :  0.30
  136O :  0.30  232O :  0.30  193O :  0.30  262O :  0.29  439O :  0.29  257H :  0.29  448O :  0.29   16O :  0.28  496O :  0.28  115O :  0.28  210H :  0.27  433O :  0.27
  517O :  0.27  475O :  0.26  391O :  0.25   22O :  0.25  373O :  0.25  202O :  0.24  514O :  0.24  511O :  0.24  259O :  0.23  241O :  0.22  175O :  0.21  130O :  0.21
  199O :  0.21  113H :  0.20  277O :  0.20  244O :  0.19  523O :  0.19  295O :  0.18  154O :  0.18  331O :  0.18  172O :  0.17  451O :  0.16  322O :  0.16   46O :  0.16
  133O :  0.16  344H :  0.15  388O :  0.14   98H :  0.14  408H :  0.14  103O :  0.14  385O :  0.13  365H :  0.13  304O :  0.13  328O :  0.13  289O :  0.13  283O :  0.13
  371H :  0.13   34O :  0.13  223O :  0.12  192H :  0.12  298O :  0.12  431H :  0.11  401H :  0.11  527H :  0.11  337O :  0.11   33H :  0.11  162H :  0.11  198H :  0.10
   73O :  0.10  340O :  0.10  437H :  0.10  180H :  0.10  163O :  0.10  215H :  0.10  438H :  0.10   45H :  0.09   93H :  0.09  400O :  0.09  307O :  0.09  314H :  0.09
  276H :  0.08  468H :  0.08  502O :  0.08  270H :  0.08  152H :  0.08  293H :  0.08  380H :  0.08   55O :  0.08  186H :  0.08  450H :  0.08  458H :  0.08  461H :  0.08
   41H :  0.08  334O :  0.07  443H :  0.07  478O :  0.07  110H :  0.07
   21 LP   *******   0.01 -16.95090  28.33596  46.97993  217O :  3.07   28O :  2.99   52O :  2.52   37O :  2.36  364O :  2.10  250O :  1.90  436O :  1.89   10O :  1.87  442O :  1.69    4O :  1.68  310O :  1.61   25O :  1.57
  265O :  1.56  361O :  1.53  268O :  1.51  124O :  1.51   79O :  1.46   97O :  1.46  181O :  1.33  526O :  1.16  484O :  1.15  142O :  1.11  445O :  1.09   13O :  1.08
  370O :  1.07   91O :  1.06   85O :  1.06  256O :  1.02  406O :  0.99  346O :  0.99  397O :  0.98  403O :  0.97   58O :  0.96  460O :  0.95  157O :  0.94  472O :  0.94
[...]
   146   1 h    0.887 --   145 o    0.834
   147   1 h    0.901 --   145 o    0.865
   148   8 o    1.842 --   149 h    0.884   150 h    0.835
   149   1 h    0.903 --   148 o    0.884
   150   1 h    0.893 --   148 o    0.835
   151   8 o    1.888 --   153 h    0.822   152 h    0.819
   152   1 h    0.891 --   151 o    0.819
   153   1 h    0.886 --   151 o    0.822
   154   8 o    1.872 --   156 h    0.855   155 h    0.816
   155   1 h    0.888 --   154 o    0.816
   156   1 h    0.897 --   154 o    0.855
   157   8 o    1.838 --   159 h    0.877   158 h    0.842
   158   1 h    0.889 --   157 o    0.842
   159   1 h    0.904 --   157 o    0.877
   160   8 o    1.848 --   161 h    0.871   162 h    0.842
   161   1 h    0.890 --   160 o    0.871
   162   1 h    0.878 --   160 o    0.842
   163   8 o    1.869 --   164 h    0.914   165 h    0.764
   164   1 h    0.921 --   163 o    0.914
   165   1 h    0.878 --   163 o    0.764   415 o    0.112
   166   8 o    1.875 --   168 h    0.840   167 h    0.819
   167   1 h    0.878 --   166 o    0.819
   168   1 h    0.896 --   166 o    0.840
   169   8 o    1.861 --   170 h    0.868   171 h    0.840
   170   1 h    0.895 --   169 o    0.868
   171   1 h    0.883 --   169 o    0.840
   172   8 o    1.839 --   174 h    0.904   173 h    0.808
   173   1 h    0.877 --   172 o    0.808
   174   1 h    0.912 --   172 o    0.904
   175   8 o    1.846 --   177 h    0.823   176 h    0.797
   176   1 h    0.875 --   175 o    0.797
   177   1 h    0.892 --   175 o    0.823
   178   8 o    1.833 --   180 h    0.852   179 h    0.814
   179   1 h    0.887 --   178 o    0.814
   180   1 h    0.901 --   178 o    0.852
   181   8 o    1.857 --   182 h    0.825   183 h    0.818
   182   1 h    0.893 --   181 o    0.825
   183   1 h    0.882 --   181 o    0.818
   184   8 o    1.815 --   186 h    0.853   185 h    0.852
   185   1 h    0.888 --   184 o    0.852
   186   1 h    0.899 --   184 o    0.853
   187   8 o    1.858 --   189 h    0.871   188 h    0.851
   188   1 h    0.892 --   187 o    0.851
   189   1 h    0.897 --   187 o    0.871
   190   8 o    1.855 --   192 h    0.822   191 h    0.798
   191   1 h    0.881 --   190 o    0.798
   192   1 h    0.888 --   190 o    0.822
   193   8 o    1.861 --   195 h    0.880   194 h    0.800
   194   1 h    0.878 --   193 o    0.800
   195   1 h    0.900 --   193 o    0.880
   196   8 o    1.851 --   197 h    0.835   198 h    0.818
   197   1 h    0.892 --   196 o    0.835
   198   1 h    0.887 --   196 o    0.818
   199   8 o    1.853 --   201 h    0.839   200 h    0.817
   200   1 h    0.877 --   199 o    0.817
   201   1 h    0.882 --   199 o    0.839
   202   8 o    1.848 --   203 h    0.856   204 h    0.801
   203   1 h    0.893 --   202 o    0.856
   204   1 h    0.875 --   202 o    0.801
   205   8 o    1.870 --   207 h    0.868   206 h    0.819
   206   1 h    0.883 --   205 o    0.819
   207   1 h    0.901 --   205 o    0.868
   208   8 o    1.843 --   209 h    0.854   210 h    0.844
   209   1 h    0.896 --   208 o    0.854
   210   1 h    0.890 --   208 o    0.844
   211   8 o    1.866 --   212 h    0.836   213 h    0.825
   212   1 h    0.876 --   211 o    0.836
   213   1 h    0.886 --   211 o    0.825
   214   8 o    1.875 --   216 h    0.829   215 h    0.815
   215   1 h    0.879 --   214 o    0.815
   216   1 h    0.888 --   214 o    0.829
   217   8 o    1.834 --   219 h    0.872   218 h    0.780
   218   1 h    0.875 --   217 o    0.780
   219   1 h    0.901 --   217 o    0.872
   220   8 o    1.844 --   221 h    0.862   222 h    0.831
   221   1 h    0.900 --   220 o    0.862
   222   1 h    0.894 --   220 o    0.831
   223   8 o    1.844 --   224 h    0.884   225 h    0.833
   224   1 h    0.906 --   223 o    0.884
   225   1 h    0.889 --   223 o    0.833
   226   8 o    1.867 --   228 h    0.836   227 h    0.836
   227   1 h    0.885 --   226 o    0.836
   228   1 h    0.885 --   226 o    0.836
   229   8 o    1.861 --   231 h    0.839   230 h    0.835
   230   1 h    0.883 --   229 o    0.835
   231   1 h    0.882 --   229 o    0.839
   232   8 o    1.862 --   234 h    0.878   233 h    0.852
   233   1 h    0.893 --   232 o    0.852
   234   1 h    0.901 --   232 o    0.878
   235   8 o    1.844 --   236 h    0.913   237 h    0.810
   236   1 h    0.917 --   235 o    0.913
   237   1 h    0.875 --   235 o    0.810
   238   8 o    1.891 --   240 h    0.817   239 h    0.804
   239   1 h    0.879 --   238 o    0.804
   240   1 h    0.880 --   238 o    0.817
   241   8 o    1.862 --   242 h    0.851   243 h    0.812
   242   1 h    0.895 --   241 o    0.851
   243   1 h    0.883 --   241 o    0.812
   244   8 o    1.828 --   245 h    0.853   246 h    0.849
   245   1 h    0.895 --   244 o    0.853
   246   1 h    0.897 --   244 o    0.849
   247   8 o    1.822 --   249 h    0.839   248 h    0.801
   248   1 h    0.875 --   247 o    0.801
   249   1 h    0.893 --   247 o    0.839
   250   8 o    1.864 --   252 h    0.826   251 h    0.794
   251   1 h    0.882 --   250 o    0.794
   252   1 h    0.885 --   250 o    0.826
   253   8 o    1.850 --   255 h    0.867   254 h    0.837
   254   1 h    0.895 --   253 o    0.837
   255   1 h    0.900 --   253 o    0.867
   256   8 o    1.874 --   258 h    0.904   257 h    0.800
   257   1 h    0.858 --   256 o    0.800
   258   1 h    0.912 --   256 o    0.904
   259   8 o    1.880 --   260 h    0.827   261 h    0.826
   260   1 h    0.893 --   259 o    0.827
   261   1 h    0.877 --   259 o    0.826
   262   8 o    1.867 --   264 h    0.914   263 h    0.779
   263   1 h    0.874 --   262 o    0.779
   264   1 h    0.919 --   262 o    0.914
   265   8 o    1.852 --   267 h    0.886   266 h    0.834
   266   1 h    0.888 --   265 o    0.834
   267   1 h    0.903 --   265 o    0.886
   268   8 o    1.849 --   269 h    0.882   270 h    0.825
   269   1 h    0.901 --   268 o    0.882
   270   1 h    0.891 --   268 o    0.825
   271   8 o    1.853 --   273 h    0.874   272 h    0.844
   272   1 h    0.888 --   271 o    0.844
   273   1 h    0.901 --   271 o    0.874
   274   8 o    1.835 --   276 h    0.843   275 h    0.828
   275   1 h    0.879 --   274 o    0.828
   276   1 h    0.897 --   274 o    0.843
   277   8 o    1.852 --   279 h    0.915   278 h    0.802
   278   1 h    0.873 --   277 o    0.802
   279   1 h    0.921 --   277 o    0.915
   280   8 o    1.887 --   281 h    0.841   282 h    0.830
   281   1 h    0.889 --   280 o    0.841
   282   1 h    0.884 --   280 o    0.830
   283   8 o    1.849 --   285 h    0.915   284 h    0.824
   284   1 h    0.878 --   283 o    0.824
   285   1 h    0.921 --   283 o    0.915
   286   8 o    1.852 --   288 h    0.808   287 h    0.787
   287   1 h    0.876 --   286 o    0.787
   288   1 h    0.890 --   286 o    0.808
   289   8 o    1.829 --   291 h    0.906   290 h    0.782
   290   1 h    0.872 --   289 o    0.782
   291   1 h    0.916 --   289 o    0.906
   292   8 o    1.826 --   294 h    0.873   293 h    0.845
   293   1 h    0.893 --   292 o    0.845
   294   1 h    0.896 --   292 o    0.873
   295   8 o    1.864 --   296 h    0.836   297 h    0.817
   296   1 h    0.892 --   295 o    0.836
   297   1 h    0.878 --   295 o    0.817
   298   8 o    1.856 --   299 h    0.831   300 h    0.821
   299   1 h    0.888 --   298 o    0.831
   300   1 h    0.885 --   298 o    0.821
   301   8 o    1.874 --   303 h    0.842   302 h    0.806
   302   1 h    0.884 --   301 o    0.806
   303   1 h    0.889 --   301 o    0.842
   304   8 o    1.845 --   305 h    0.847   306 h    0.818
   305   1 h    0.890 --   304 o    0.847
   306   1 h    0.874 --   304 o    0.818
   307   8 o    1.863 --   308 h    0.859   309 h    0.853
   308   1 h    0.894 --   307 o    0.859
   309   1 h    0.892 --   307 o    0.853
   310   8 o    1.817 --   311 h    0.819   312 h    0.811
   311   1 h    0.884 --   310 o    0.819
   312   1 h    0.886 --   310 o    0.811
   313   8 o    1.851 --   315 h    0.827   314 h    0.823
   314   1 h    0.879 --   313 o    0.823
   315   1 h    0.892 --   313 o    0.827
   316   8 o    1.878 --   318 h    0.815   317 h    0.811
   317   1 h    0.877 --   316 o    0.811
   318   1 h    0.891 --   316 o    0.815
   319   8 o    1.846 --   321 h    0.857   320 h    0.856
   320   1 h    0.898 --   319 o    0.856
   321   1 h    0.897 --   319 o    0.857
   322   8 o    1.835 --   323 h    0.865   324 h    0.831
   323   1 h    0.897 --   322 o    0.865
   324   1 h    0.889 --   322 o    0.831
   325   8 o    1.866 --   327 h    0.844   326 h    0.799
   326   1 h    0.876 --   325 o    0.799
   327   1 h    0.888 --   325 o    0.844
   328   8 o    1.864 --   330 h    0.843   329 h    0.813
   329   1 h    0.886 --   328 o    0.813
   330   1 h    0.895 --   328 o    0.843
   331   8 o    1.846 --   333 h    0.906   332 h    0.829
   332   1 h    0.881 --   331 o    0.829
   333   1 h    0.913 --   331 o    0.906
   334   8 o    1.846 --   335 h    0.861   336 h    0.803
   335   1 h    0.901 --   334 o    0.861
   336   1 h    0.880 --   334 o    0.803
   337   8 o    1.838 --   338 h    0.905   339 h    0.828
   338   1 h    0.912 --   337 o    0.905
   339   1 h    0.883 --   337 o    0.828
   340   8 o    1.851 --   342 h    0.852   341 h    0.809
   341   1 h    0.890 --   340 o    0.809
   342   1 h    0.892 --   340 o    0.852
   343   8 o    1.842 --   345 h    0.849   344 h    0.822
   344   1 h    0.874 --   343 o    0.822
   345   1 h    0.893 --   343 o    0.849
   346   8 o    1.847 --   348 h    0.885   347 h    0.854
   347   1 h    0.894 --   346 o    0.854
   348   1 h    0.904 --   346 o    0.885
   349   8 o    1.877 --   351 h    0.836   350 h    0.818
   350   1 h    0.878 --   349 o    0.818
   351   1 h    0.891 --   349 o    0.836
   352   8 o    1.869 --   354 h    0.821   353 h    0.817
   353   1 h    0.889 --   352 o    0.817
   354   1 h    0.878 --   352 o    0.821
   355   8 o    1.834 --   356 h    0.912   357 h    0.795
   356   1 h    0.918 --   355 o    0.912
   357   1 h    0.874 --   355 o    0.795
   358   8 o    1.824 --   359 h    0.919   360 h    0.783
   359   1 h    0.924 --   358 o    0.919
   360   1 h    0.877 --   358 o    0.783
   361   8 o    1.870 --   363 h    0.886   362 h    0.824
   362   1 h    0.888 --   361 o    0.824
   363   1 h    0.902 --   361 o    0.886
   364   8 o    1.837 --   366 h    0.863   365 h    0.856
   365   1 h    0.897 --   364 o    0.856
   366   1 h    0.895 --   364 o    0.863
   367   8 o    1.814 --   368 h    0.854   369 h    0.850
   368   1 h    0.894 --   367 o    0.854
   369   1 h    0.894 --   367 o    0.850
   370   8 o    1.866 --   372 h    0.835   371 h    0.818
   371   1 h    0.890 --   370 o    0.818
   372   1 h    0.883 --   370 o    0.835
   373   8 o    1.867 --   374 h    0.859   375 h    0.828
   374   1 h    0.901 --   373 o    0.859
   375   1 h    0.889 --   373 o    0.828
   376   8 o    1.836 --   378 h    0.822   377 h    0.804
   377   1 h    0.887 --   376 o    0.804
   378   1 h    0.891 --   376 o    0.822
   379   8 o    1.824 --   381 h    0.883   380 h    0.808
   380   1 h    0.879 --   379 o    0.808
   381   1 h    0.906 --   379 o    0.883
   382   8 o    1.876 --   384 h    0.916   383 h    0.813
   383   1 h    0.877 --   382 o    0.813
   384   1 h    0.919 --   382 o    0.916
   385   8 o    1.864 --   386 h    0.818   387 h    0.814
   386   1 h    0.887 --   385 o    0.818
   387   1 h    0.869 --   385 o    0.814
   388   8 o    1.818 --   389 h    0.828   390 h    0.821
   389   1 h    0.883 --   388 o    0.828
   390   1 h    0.884 --   388 o    0.821
   391   8 o    1.886 --   393 h    0.844   392 h    0.838   488 h    0.107
   392   1 h    0.892 --   391 o    0.838
   393   1 h    0.895 --   391 o    0.844
   394   8 o    1.874 --   395 h    0.825   396 h    0.817
   395   1 h    0.882 --   394 o    0.825
   396   1 h    0.887 --   394 o    0.817
   397   8 o    1.886 --   399 h    0.844   398 h    0.842   468 h    0.103
   398   1 h    0.891 --   397 o    0.842
   399   1 h    0.893 --   397 o    0.844
   400   8 o    1.863 --   402 h    0.820   401 h    0.802
   401   1 h    0.876 --   400 o    0.802
   402   1 h    0.885 --   400 o    0.820
   403   8 o    1.838 --   405 h    0.884   404 h    0.808
   404   1 h    0.878 --   403 o    0.808
   405   1 h    0.902 --   403 o    0.884
   406   8 o    1.868 --   408 h    0.866   407 h    0.835
   407   1 h    0.891 --   406 o    0.835
   408   1 h    0.898 --   406 o    0.866
   409   8 o    1.839 --   410 h    0.850   411 h    0.845
   410   1 h    0.898 --   409 o    0.850
   411   1 h    0.890 --   409 o    0.845
   412   8 o    1.859 --   414 h    0.884   413 h    0.821
   413   1 h    0.887 --   412 o    0.821
   414   1 h    0.903 --   412 o    0.884
   415   8 o    1.886 --   417 h    0.827   416 h    0.774   165 h    0.112
   416   1 h    0.875 --   415 o    0.774
   417   1 h    0.891 --   415 o    0.827
   418   8 o    1.864 --   419 h    0.843   420 h    0.810
   419   1 h    0.893 --   418 o    0.843
   420   1 h    0.877 --   418 o    0.810
   421   8 o    1.846 --   423 h    0.888   422 h    0.816
   422   1 h    0.872 --   421 o    0.816
   423   1 h    0.904 --   421 o    0.888
   424   8 o    1.864 --   425 h    0.889   426 h    0.817
   425   1 h    0.904 --   424 o    0.889
   426   1 h    0.875 --   424 o    0.817
   427   8 o    1.793 --   429 h    0.846   428 h    0.841
   428   1 h    0.899 --   427 o    0.841
   429   1 h    0.897 --   427 o    0.846
   430   8 o    1.845 --   431 h    0.894   432 h    0.838
   431   1 h    0.909 --   430 o    0.894
   432   1 h    0.886 --   430 o    0.838
   433   8 o    1.865 --   435 h    0.912   434 h    0.789
   434   1 h    0.880 --   433 o    0.789
   435   1 h    0.919 --   433 o    0.912
   436   8 o    1.813 --   438 h    0.843   437 h    0.840
   437   1 h    0.893 --   436 o    0.840
   438   1 h    0.893 --   436 o    0.843
   439   8 o    1.867 --   440 h    0.874   441 h    0.828
   440   1 h    0.896 --   439 o    0.874
   441   1 h    0.888 --   439 o    0.828
   442   8 o    1.865 --   443 h    0.834   444 h    0.791
   443   1 h    0.891 --   442 o    0.834
   444   1 h    0.876 --   442 o    0.791
   445   8 o    1.874 --   446 h    0.864   447 h    0.860
   446   1 h    0.895 --   445 o    0.864
   447   1 h    0.897 --   445 o    0.860
   448   8 o    1.870 --   449 h    0.826   450 h    0.826
   449   1 h    0.891 --   448 o    0.826
   450   1 h    0.884 --   448 o    0.826
   451   8 o    1.872 --   452 h    0.878   453 h    0.806
   452   1 h    0.901 --   451 o    0.878
   453   1 h    0.869 --   451 o    0.806
   454   8 o    1.865 --   455 h    0.914   456 h    0.808
   455   1 h    0.918 --   454 o    0.914
   456   1 h    0.878 --   454 o    0.808
   457   8 o    1.858 --   458 h    0.854   459 h    0.839
   458   1 h    0.897 --   457 o    0.854
   459   1 h    0.892 --   457 o    0.839
   460   8 o    1.867 --   461 h    0.847   462 h    0.831
   461   1 h    0.895 --   460 o    0.847
   462   1 h    0.889 --   460 o    0.831
   463   8 o    1.859 --   464 h    0.852   465 h    0.823
   464   1 h    0.898 --   463 o    0.852
   465   1 h    0.882 --   463 o    0.823
   466   8 o    1.875 --   467 h    0.901   468 h    0.773
   467   1 h    0.912 --   466 o    0.901
   468   1 h    0.879 --   466 o    0.773   397 o    0.103
   469   8 o    1.845 --   471 h    0.852   470 h    0.831
   470   1 h    0.882 --   469 o    0.831
   471   1 h    0.902 --   469 o    0.852
   472   8 o    1.864 --   474 h    0.858   473 h    0.798
   473   1 h    0.875 --   472 o    0.798
   474   1 h    0.892 --   472 o    0.858
   475   8 o    1.834 --   476 h    0.886   477 h    0.819
   476   1 h    0.907 --   475 o    0.886
   477   1 h    0.877 --   475 o    0.819
   478   8 o    1.859 --   479 h    0.873   480 h    0.844
   479   1 h    0.900 --   478 o    0.873
   480   1 h    0.885 --   478 o    0.844
   481   8 o    1.875 --   483 h    0.830   482 h    0.819
   482   1 h    0.874 --   481 o    0.819
   483   1 h    0.891 --   481 o    0.830
   484   8 o    1.857 --   485 h    0.834   486 h    0.812
   485   1 h    0.891 --   484 o    0.834
   486   1 h    0.883 --   484 o    0.812
   487   8 o    1.867 --   489 h    0.914   488 h    0.767
   488   1 h    0.878 --   487 o    0.767   391 o    0.107
   489   1 h    0.920 --   487 o    0.914
   490   8 o    1.888 --   492 h    0.809   491 h    0.790
   491   1 h    0.869 --   490 o    0.790
   492   1 h    0.891 --   490 o    0.809
   493   8 o    1.863 --   494 h    0.883   495 h    0.807
   494   1 h    0.905 --   493 o    0.883
   495   1 h    0.880 --   493 o    0.807
   496   8 o    1.857 --   497 h    0.913   498 h    0.780
   497   1 h    0.918 --   496 o    0.913
   498   1 h    0.878 --   496 o    0.780
   499   8 o    1.825 --   500 h    0.857   501 h    0.829
   500   1 h    0.890 --   499 o    0.857
   501   1 h    0.893 --   499 o    0.829
   502   8 o    1.842 --   504 h    0.874   503 h    0.870
   503   1 h    0.900 --   502 o    0.870
   504   1 h    0.900 --   502 o    0.874
   505   8 o    1.809 --   507 h    0.862   506 h    0.848
   506   1 h    0.891 --   505 o    0.848
   507   1 h    0.892 --   505 o    0.862
   508   8 o    1.864 --   509 h    0.829   510 h    0.825
   509   1 h    0.885 --   508 o    0.829
   510   1 h    0.887 --   508 o    0.825
   511   8 o    1.847 --   513 h    0.857   512 h    0.814
   512   1 h    0.880 --   511 o    0.814
   513   1 h    0.901 --   511 o    0.857
   514   8 o    1.814 --   516 h    0.850   515 h    0.816
   515   1 h    0.890 --   514 o    0.816
   516   1 h    0.896 --   514 o    0.850
   517   8 o    1.857 --   519 h    0.915   518 h    0.805
   518   1 h    0.880 --   517 o    0.805
   519   1 h    0.919 --   517 o    0.915
   520   8 o    1.869 --   521 h    0.917   522 h    0.788
   521   1 h    0.921 --   520 o    0.917
   522   1 h    0.870 --   520 o    0.788
   523   8 o    1.863 --   524 h    0.893   525 h    0.848
   524   1 h    0.903 --   523 o    0.893
   525   1 h    0.888 --   523 o    0.848
   526   8 o    1.804 --   528 h    0.870   527 h    0.826
   527   1 h    0.873 --   526 o    0.826
   528   1 h    0.897 --   526 o    0.870
   529   8 o    1.817 --   530 h    0.871   531 h    0.862
   530   1 h    0.895 --   529 o    0.871
   531   1 h    0.890 --   529 o    0.862
 ---------------------------------------------------------------------------

Topologies differ in total number of bonds
Writing topology from bond orders to xtbtopo.mol

molecular dipole:
                 x           y           z       tot (Debye)
 q only:        0.134       1.331       3.209
   full:        0.594       1.790       4.385      12.132
molecular quadrupole (traceless):
                xx          xy          yy          xz          yz          zz
 q only:       63.275       0.750     -76.460      26.844     -20.744      13.184
  q+dip:       94.624       0.183    -116.171      40.935     -27.882      21.547
   full:       96.304       0.773    -118.272      40.391     -28.516      21.969


           -------------------------------------------------
          | TOTAL ENERGY             -901.196160335133 Eh   |
          | GRADIENT NORM               0.097374034551 Eh/α |
          | HOMO-LUMO GAP               6.445121746321 eV   |
           -------------------------------------------------

------------------------------------------------------------------------
 * finished run on 2022/11/17 at 06:55:19.189     
------------------------------------------------------------------------
 total:
 * wall-time:     0 d,  0 h,  0 min, 19.450 sec
 *  cpu-time:     0 d,  0 h,  0 min, 25.842 sec
 * ratio c/w:     1.329 speedup
 SCF:
 * wall-time:     0 d,  0 h,  0 min, 18.828 sec
 *  cpu-time:     0 d,  0 h,  0 min, 24.770 sec
 * ratio c/w:     1.316 speedup

