      -----------------------------------------------------------      
     |                   =====================                   |     
     |                           x T B                           |     
     |                   =====================                   |     
     |                         S. Grimme                         |     
     |          Mulliken Center for Theoretical Chemistry        |     
     |                    University of Bonn                     |     
      -----------------------------------------------------------      

   * xtb version 6.5.1 (579679a) compiled by 'ehlert@majestix' on 2022-07-11

   xtb is free software: you can redistribute it and/or modify it under
   the terms of the GNU Lesser General Public License as published by
   the Free Software Foundation, either version 3 of the License, or
   (at your option) any later version.
   
   xtb is distributed in the hope that it will be useful,
   but WITHOUT ANY WARRANTY; without even the implied warranty of
   MERCHANTABILITY or FITNESS FOR A PARTICULAR PURPOSE.  See the
   GNU Lesser General Public License for more details.
   
   Cite this work as:
   * C. Bannwarth, E. Caldeweyher, S. Ehlert, A. Hansen, P. Pracht,
     J. Seibert, S. Spicher, S. Grimme, WIREs Comput. Mol. Sci., 2020, 11,
     e01493. DOI: 10.1002/wcms.1493
   
   for GFN2-xTB:
   * C. Bannwarth, S. Ehlert and S. Grimme., J. Chem. Theory Comput., 2019,
     15, 1652-1671. DOI: 10.1021/acs.jctc.8b01176
   for GFN1-xTB:
   * S. Grimme, C. Bannwarth, P. Shushkov, J. Chem. Theory Comput., 2017,
     13, 1989-2009. DOI: 10.1021/acs.jctc.7b00118
   for GFN0-xTB:
   * P. Pracht, E. Caldeweyher, S. Ehlert, S. Grimme, ChemRxiv, 2019, preprint.
     DOI: 10.26434/chemrxiv.8326202.v1
   for GFN-FF:
   * S. Spicher and S. Grimme, Angew. Chem. Int. Ed., 2020, 59, 15665-15673.
     DOI: 10.1002/anie.202004239
   
   for ALPB and GBSA implicit solvation:
   * S. Ehlert, M. Stahn, S. Spicher, S. Grimme, J. Chem. Theory Comput.,
     2021, 17, 4250-4261. DOI: 10.1021/acs.jctc.1c00471
   
   for DFT-D4:
   * E. Caldeweyher, C. Bannwarth and S. Grimme, J. Chem. Phys., 2017,
     147, 034112. DOI: 10.1063/1.4993215
   * E. Caldeweyher, S. Ehlert, A. Hansen, H. Neugebauer, S. Spicher,
     C. Bannwarth and S. Grimme, J. Chem. Phys., 2019, 150, 154122.
     DOI: 10.1063/1.5090222
   * E. Caldeweyher, J.-M. Mewes, S. Ehlert and S. Grimme, Phys. Chem. Chem. Phys.
     2020, 22, 8499-8512. DOI: 10.1039/D0CP00502A
   
   for sTDA-xTB:
   * S. Grimme and C. Bannwarth, J. Chem. Phys., 2016, 145, 054103.
     DOI: 10.1063/1.4959605
   
   in the mass-spec context:
   * V. Asgeirsson, C. Bauer and S. Grimme, Chem. Sci., 2017, 8, 4879.
     DOI: 10.1039/c7sc00601b
   * J. Koopman and S. Grimme, ACS Omega 2019, 4, 12, 15120-15133.
     DOI: 10.1021/acsomega.9b02011
   
   for metadynamics refer to:
   * S. Grimme, J. Chem. Theory Comput., 2019, 155, 2847-2862
     DOI: 10.1021/acs.jctc.9b00143
   
   for SPH calculations refer to:
   * S. Spicher and S. Grimme, J. Chem. Theory Comput., 2021, 17, 1701-1714
     DOI: 10.1021/acs.jctc.0c01306
   
   with help from (in alphabetical order)
   P. Atkinson, C. Bannwarth, F. Bohle, G. Brandenburg, E. Caldeweyher
   M. Checinski, S. Dohm, S. Ehlert, S. Ehrlich, I. Gerasimov, C. Hölzer
   A. Katbashev, J. Koopman, C. Lavigne, S. Lehtola, F. März, M. Müller,
   F. Musil, H. Neugebauer, J. Pisarek, C. Plett, P. Pracht, F. Pultar,
   J. Seibert, P. Shushkov, S. Spicher, M. Stahn, M. Steiner, T. Strunk,
   J. Stückrath, T. Rose, and J. Unsleber
   
 * started run on 2022/11/17 at 06:54:49.174     

           -------------------------------------------------
          |                Calculation Setup                |
           -------------------------------------------------

          program call               : xtb xtbopt.coord --gfn2 --sp --gbsa water
          hostname                   : cn0363
          coordinate file            : xtbopt.coord
          omp threads                :                     2

   ID    Z sym.   atoms
    1    8 o      1, 4, 7, 10, 13, 16, 19, 22, 25, 28, 31, 34, 37, 40, 43,
                  46, 49, 52, 55, 58, 61, 64, 67, 70, 73, 76, 79, 82, 85, 88,
                  91, 94, 97, 100, 103, 106, 109, 112, 115, 118, 121, 124,
                  127, 130, 133, 136, 139, 142, 145, 148, 151, 154, 157, 160,
                  163, 166, 169, 172, 175, 178, 181, 184, 187, 190, 193, 196,
                  199, 202, 205, 208, 211, 214, 217, 220, 223, 226, 229, 232,
                  235, 238, 241, 244, 247, 250, 253, 256, 259, 262, 265, 268,
                  271, 274, 277, 280, 283, 286, 289, 292, 295, 298, 301, 304,
                  307, 310, 313, 316, 319, 322, 325, 328, 331, 334, 337, 340,
                  343, 346, 349, 352, 355, 358, 361, 364, 367, 370, 373, 376,
                  379, 382, 385, 388, 391, 394, 397, 400, 403, 406, 409, 412,
                  415, 418, 421, 424, 427, 430, 433, 436, 439, 442, 445, 448,
                  451, 454, 457, 460, 463, 466, 469, 472, 475, 478, 481, 484,
                  487, 490, 493, 496, 499, 502, 505, 508, 511, 514, 517, 520,
                  523, 526, 529
    2    1 h      2, 3, 5, 6, 8, 9, 11, 12, 14, 15, 17, 18, 20, 21, 23, 24,
                  26, 27, 29, 30, 32, 33, 35, 36, 38, 39, 41, 42, 44, 45, 47,
                  48, 50, 51, 53, 54, 56, 57, 59, 60, 62, 63, 65, 66, 68, 69,
                  71, 72, 74, 75, 77, 78, 80, 81, 83, 84, 86, 87, 89, 90, 92,
                  93, 95, 96, 98, 99, 101, 102, 104, 105, 107, 108, 110, 111,
                  113, 114, 116, 117, 119, 120, 122, 123, 125, 126, 128, 129,
                  131, 132, 134, 135, 137, 138, 140, 141, 143, 144, 146, 147,
                  149, 150, 152, 153, 155, 156, 158, 159, 161, 162, 164, 165,
                  167, 168, 170, 171, 173, 174, 176, 177, 179, 180, 182, 183,
                  185, 186, 188, 189, 191, 192, 194, 195, 197, 198, 200, 201,
                  203, 204, 206, 207, 209, 210, 212, 213, 215, 216, 218, 219,
                  221, 222, 224, 225, 227, 228, 230, 231, 233, 234, 236, 237,
                  239, 240, 242, 243, 245, 246, 248, 249, 251, 252, 254, 255,
                  257, 258, 260, 261, 263, 264, 266, 267, 269, 270, 272, 273,
                  275, 276, 278, 279, 281, 282, 284, 285, 287, 288, 290, 291,
                  293, 294, 296, 297, 299, 300, 302, 303, 305, 306, 308, 309,
                  311, 312, 314, 315, 317, 318, 320, 321, 323, 324, 326, 327,
                  329, 330, 332, 333, 335, 336, 338, 339, 341, 342, 344, 345,
                  347, 348, 350, 351, 353, 354, 356, 357, 359, 360, 362, 363,
                  365, 366, 368, 369, 371, 372, 374, 375, 377, 378, 380, 381,
                  383, 384, 386, 387, 389, 390, 392, 393, 395, 396, 398, 399,
                  401, 402, 404, 405, 407, 408, 410, 411, 413, 414, 416, 417,
                  419, 420, 422, 423, 425, 426, 428, 429, 431, 432, 434, 435,
                  437, 438, 440, 441, 443, 444, 446, 447, 449, 450, 452, 453,
                  455, 456, 458, 459, 461, 462, 464, 465, 467, 468, 470, 471,
                  473, 474, 476, 477, 479, 480, 482, 483, 485, 486, 488, 489,
                  491, 492, 494, 495, 497, 498, 500, 501, 503, 504, 506, 507,
                  509, 510, 512, 513, 515, 516, 518, 519, 521, 522, 524, 525,
                  527, 528, 530, 531

molecular fragmentation (1/2 indicates fragments):
111222222222222222222222222222222222222222222222222222222222222222222222
222222222222222222222222222222222222222222222222222222222222222222222222
222222222222222222222222222222222222222222222222222222222222222222222222
222222222222222222222222222222222222222222222222222222222222222222222222
222222222222222222222222222222222222222222222222222222222222222222222222
222222222222222222222222222222222222222222222222222222222222222222222222
222222222222222222222222222222222222222222222222222222222222222222222222
222222222222222222222222222
# atoms in fragment 1/2:     3   528
 fragment masses (1/2) :       18.02     3170.69
CMA distance (Bohr)    :   4.848
constraining FC (au)   :  0.0500

           -------------------------------------------------
          |                 G F N 2 - x T B                 |
           -------------------------------------------------

        Reference                      10.1021/acs.jctc.8b01176
      * Hamiltonian:
        H0-scaling (s, p, d)           1.850000    2.230000    2.230000
        zeta-weighting                 0.500000
      * Dispersion:
        s8                             2.700000
        a1                             0.520000
        a2                             5.000000
        s9                             5.000000
      * Repulsion:
        kExp                           1.500000    1.000000
        rExp                           1.000000
      * Coulomb:
        alpha                          2.000000
        third order                    shell-resolved
        anisotropic                    true
        a3                             3.000000
        a5                             4.000000
        cn-shift                       1.200000
        cn-exp                         4.000000
        max-rad                        5.000000

      * Solvation model:               GBSA
        Solvent                        water
        Parameter file                 internal GFN2-xTB/GBSA
        Dielectric constant                8.0200E+01
        Reference state                gsolv [1 M gas/solution]
        Free energy shift                  1.8574E-03 Eh       1.1656E+00 kcal/mol
        Temperature                        2.9815E+02 K
        Density                            1.0000E+00 kg/L
        Solvent mass                       1.8000E+01 g/mol
        Interaction kernel             Still
        Born radius scaling (c1)           1.5524E+00
        Born radii integrator          GBOBC
        Born offset                        2.4628E-02 a0       4.6540E-02 AA
        H-bond correction              true
        Ion screening                  false
        Surface tension                    1.0000E-05 Eh       1.5569E+01 dyn/cm
        Grid points                               230 per atom

          ...................................................
          :                      SETUP                      :
          :.................................................:
          :  # basis functions                1062          :
          :  # atomic orbitals                1062          :
          :  # shells                          708          :
          :  # electrons                      1416          :
          :  max. iterations                   250          :
          :  Hamiltonian                  GFN2-xTB          :
          :  restarted?                      false          :
          :  GBSA solvation                   true          :
          :  PC potential                    false          :
          :  electronic temp.          300.0000000     K    :
          :  accuracy                    1.0000000          :
          :  -> integral cutoff          0.2500000E+02      :
          :  -> integral neglect         0.1000000E-07      :
          :  -> SCF convergence          0.1000000E-05 Eh   :
          :  -> wf. convergence          0.1000000E-03 e    :
          :  Broyden damping             0.4000000          :
          ...................................................

 iter      E             dE          RMSdq      gap      omega  full diag
   1   -906.7808303 -0.906781E+03  0.408E+00    8.66       0.0  T
   2   -906.8430582 -0.622279E-01  0.241E+00    8.24       1.0  T
   3   -906.8687418 -0.256836E-01  0.229E-01    7.21       1.0  T
   4   -906.8727167 -0.397488E-02  0.506E-02    7.45       1.0  T
   5   -906.8728622 -0.145566E-03  0.316E-02    7.39       1.0  T
   6   -906.8728959 -0.337066E-04  0.345E-03    7.41       1.3  T
   7   -906.8728969 -0.961551E-06  0.843E-04    7.41       5.1  T
   8   -906.8728969 -0.355683E-07  0.465E-04    7.41       9.3  T

   *** convergence criteria satisfied after 8 iterations ***

         #    Occupation            Energy/Eh            Energy/eV
      -------------------------------------------------------------
         1        2.0000           -0.6572826             -17.8856
       ...           ...                  ...                  ...
       702        2.0000           -0.3434679              -9.3462
       703        2.0000           -0.3427714              -9.3273
       704        2.0000           -0.3425071              -9.3201
       705        2.0000           -0.3372139              -9.1761
       706        2.0000           -0.3355456              -9.1307
       707        2.0000           -0.3284314              -8.9371
       708        2.0000           -0.3238943              -8.8136 (HOMO)
       709                         -0.0517480              -1.4081 (LUMO)
       710                         -0.0426056              -1.1594
       711                         -0.0289282              -0.7872
       712                         -0.0275820              -0.7505
       713                         -0.0186508              -0.5075
       ...                                ...                  ...
      1062                          0.4976834              13.5427
      -------------------------------------------------------------
                  HL-Gap            0.2721463 Eh            7.4055 eV
             Fermi-level           -0.1878212 Eh           -5.1109 eV

 SCC (total)                   0 d,  0 h,  0 min,  8.673 sec
 SCC setup                      ...        0 min,  0.109 sec (  1.262%)
 Dispersion                     ...        0 min,  0.073 sec (  0.839%)
 classical contributions        ...        0 min,  0.016 sec (  0.180%)
 integral evaluation            ...        0 min,  0.562 sec (  6.485%)
 iterations                     ...        0 min,  3.109 sec ( 35.847%)
 molecular gradient             ...        0 min,  4.777 sec ( 55.077%)
 printout                       ...        0 min,  0.027 sec (  0.309%)

         :::::::::::::::::::::::::::::::::::::::::::::::::::::
         ::                     SUMMARY                     ::
         :::::::::::::::::::::::::::::::::::::::::::::::::::::
         :: total energy            -901.407762705358 Eh    ::
         :: total w/o Gsasa/hb      -901.214470837242 Eh    ::
         :: gradient norm              0.105296122647 Eh/a0 ::
         :: HOMO-LUMO gap              7.405477013956 eV    ::
         ::.................................................::
         :: SCC energy              -906.872896946210 Eh    ::
         :: -> isotropic ES            5.262143692194 Eh    ::
         :: -> anisotropic ES         -1.123291560328 Eh    ::
         :: -> anisotropic XC         -0.086643293949 Eh    ::
         :: -> dispersion             -0.531205096625 Eh    ::
         :: -> Gsolv                  -0.225352667742 Eh    ::
         ::    -> Gelec               -0.032060799626 Eh    ::
         ::    -> Gsasa                0.003949642218 Eh    ::
         ::    -> Ghb                 -0.199098953460 Eh    ::
         ::    -> Gshift               0.001857443127 Eh    ::
         :: repulsion energy           5.369641331811 Eh    ::
         :: add. restraining           0.000000000000 Eh    ::
         :: total charge               0.000000000000 e     ::
         :::::::::::::::::::::::::::::::::::::::::::::::::::::

           -------------------------------------------------
          |                Property Printout                |
           -------------------------------------------------

    * Orbital Energies and Occupations

         #    Occupation            Energy/Eh            Energy/eV
      -------------------------------------------------------------
         1        2.0000           -0.6572826             -17.8856
       ...           ...                  ...                  ...
       696        2.0000           -0.3562165              -9.6931
       697        2.0000           -0.3556232              -9.6770
       698        2.0000           -0.3486971              -9.4885
       699        2.0000           -0.3471498              -9.4464
       700        2.0000           -0.3460400              -9.4162
       701        2.0000           -0.3444085              -9.3718
       702        2.0000           -0.3434679              -9.3462
       703        2.0000           -0.3427714              -9.3273
       704        2.0000           -0.3425071              -9.3201
       705        2.0000           -0.3372139              -9.1761
       706        2.0000           -0.3355456              -9.1307
       707        2.0000           -0.3284314              -8.9371
       708        2.0000           -0.3238943              -8.8136 (HOMO)
       709                         -0.0517480              -1.4081 (LUMO)
       710                         -0.0426056              -1.1594
       711                         -0.0289282              -0.7872
       712                         -0.0275820              -0.7505
       713                         -0.0186508              -0.5075
       714                         -0.0135519              -0.3688
       715                         -0.0082487              -0.2245
       716                          0.0016014               0.0436
       717                          0.0025485               0.0693
       718                          0.0096959               0.2638
       719                          0.0118773               0.3232
       ...                                ...                  ...
      1062                          0.4976834              13.5427
      -------------------------------------------------------------
                  HL-Gap            0.2721463 Eh            7.4055 eV
             Fermi-level           -0.1878212 Eh           -5.1109 eV

     #   Z          covCN         q      C6AA      α(0)
     1   8 o        1.608    -0.664    26.770     6.983
     2   1 h        0.805     0.326     0.647     1.263
     3   1 h        0.802     0.349     0.591     1.208
     4   8 o        1.609    -0.669    26.906     7.001
     5   1 h        0.804     0.329     0.641     1.257
     6   1 h        0.805     0.349     0.590     1.207
     7   8 o        1.608    -0.680    27.172     7.035
     8   1 h        0.804     0.350     0.588     1.205
     9   1 h        0.804     0.340     0.613     1.230
    10   8 o        1.608    -0.677    27.094     7.025
    11   1 h        0.805     0.349     0.591     1.207
    12   1 h        0.803     0.340     0.613     1.230
    13   8 o        1.609    -0.675    27.066     7.022
    14   1 h        0.804     0.323     0.656     1.272
    15   1 h        0.804     0.341     0.610     1.227
    16   8 o        1.607    -0.678    27.136     7.031
    17   1 h        0.803     0.329     0.639     1.256
    18   1 h        0.804     0.346     0.598     1.215
    19   8 o        1.607    -0.688    27.402     7.065
    20   1 h        0.805     0.346     0.598     1.215
    21   1 h        0.803     0.349     0.592     1.209
    22   8 o        1.605    -0.712    28.026     7.145
    23   1 h        0.803     0.358     0.570     1.186
    24   1 h        0.804     0.347     0.596     1.213
    25   8 o        1.608    -0.690    27.454     7.072
    26   1 h        0.804     0.354     0.580     1.196
    27   1 h        0.804     0.350     0.589     1.205
    28   8 o        1.609    -0.668    26.873     6.996
    29   1 h        0.804     0.348     0.593     1.209
    30   1 h        0.804     0.338     0.617     1.234
    31   8 o        1.607    -0.691    27.478     7.075
    32   1 h        0.803     0.335     0.624     1.241
    33   1 h        0.804     0.341     0.609     1.226
    34   8 o        1.607    -0.684    27.283     7.050
    35   1 h        0.803     0.347     0.595     1.212
    36   1 h        0.804     0.341     0.610     1.227
    37   8 o        1.609    -0.682    27.245     7.045
    38   1 h        0.804     0.331     0.635     1.252
    39   1 h        0.804     0.330     0.637     1.254
    40   8 o        1.607    -0.705    27.844     7.122
    41   1 h        0.804     0.337     0.620     1.237
    42   1 h        0.803     0.330     0.638     1.255
    43   8 o        1.607    -0.666    26.818     6.989
    44   1 h        0.804     0.328     0.643     1.260
    45   1 h        0.803     0.333     0.630     1.247
    46   8 o        1.607    -0.653    26.502     6.948
    47   1 h        0.803     0.336     0.623     1.240
    48   1 h        0.804     0.332     0.633     1.250
    49   8 o        1.607    -0.670    26.932     7.004
    50   1 h        0.803     0.357     0.573     1.189
    51   1 h        0.803     0.335     0.624     1.241
    52   8 o        1.607    -0.674    27.036     7.018
    53   1 h        0.804     0.339     0.615     1.231
    54   1 h        0.803     0.363     0.559     1.175
    55   8 o        1.609    -0.666    26.833     6.991
    56   1 h        0.804     0.351     0.585     1.201
    57   1 h        0.804     0.323     0.657     1.273
    58   8 o        1.608    -0.691    27.475     7.074
    59   1 h        0.804     0.340     0.612     1.229
    60   1 h        0.804     0.355     0.576     1.192
    61   8 o        1.607    -0.671    26.949     7.006
    62   1 h        0.802     0.365     0.556     1.171
    63   1 h        0.805     0.325     0.649     1.265
    64   8 o        1.607    -0.684    27.294     7.051
    65   1 h        0.803     0.351     0.587     1.203
    66   1 h        0.803     0.350     0.588     1.204
    67   8 o        1.608    -0.669    26.909     7.001
    68   1 h        0.803     0.325     0.652     1.268
    69   1 h        0.805     0.323     0.655     1.271
    70   8 o        1.605    -0.702    27.760     7.111
    71   1 h        0.804     0.352     0.584     1.201
    72   1 h        0.802     0.348     0.594     1.211
    73   8 o        1.607    -0.685    27.320     7.054
    74   1 h        0.802     0.350     0.587     1.204
    75   1 h        0.805     0.346     0.597     1.214
    76   8 o        1.608    -0.683    27.271     7.048
    77   1 h        0.804     0.334     0.626     1.243
    78   1 h        0.804     0.341     0.610     1.227
    79   8 o        1.608    -0.675    27.052     7.020
    80   1 h        0.804     0.331     0.635     1.252
    81   1 h        0.804     0.350     0.587     1.204
    82   8 o        1.607    -0.685    27.314     7.054
    83   1 h        0.804     0.321     0.661     1.277
    84   1 h        0.803     0.350     0.588     1.204
    85   8 o        1.607    -0.675    27.053     7.020
    86   1 h        0.802     0.362     0.562     1.178
    87   1 h        0.806     0.309     0.694     1.308
    88   8 o        1.608    -0.682    27.236     7.044
    89   1 h        0.803     0.347     0.595     1.212
    90   1 h        0.805     0.326     0.649     1.265
    91   8 o        1.606    -0.679    27.159     7.034
    92   1 h        0.804     0.325     0.651     1.267
    93   1 h        0.803     0.335     0.625     1.242
    94   8 o        1.605    -0.676    27.072     7.022
    95   1 h        0.802     0.334     0.628     1.245
    96   1 h        0.804     0.332     0.634     1.250
    97   8 o        1.609    -0.664    26.765     6.983
    98   1 h        0.805     0.324     0.653     1.269
    99   1 h        0.804     0.322     0.660     1.276
   100   8 o        1.606    -0.666    26.834     6.991
   101   1 h        0.805     0.341     0.609     1.226
   102   1 h        0.802     0.331     0.636     1.253
   103   8 o        1.607    -0.680    27.176     7.036
   104   1 h        0.803     0.357     0.573     1.189
   105   1 h        0.804     0.340     0.612     1.229
   106   8 o        1.607    -0.671    26.946     7.006
   107   1 h        0.805     0.306     0.704     1.318
   108   1 h        0.802     0.364     0.557     1.173
   109   8 o        1.609    -0.667    26.848     6.993
   110   1 h        0.803     0.342     0.606     1.223
   111   1 h        0.804     0.327     0.645     1.261
   112   8 o        1.607    -0.708    27.912     7.130
   113   1 h        0.804     0.348     0.594     1.210
   114   1 h        0.803     0.345     0.600     1.217
   115   8 o        1.608    -0.677    27.103     7.026
   116   1 h        0.804     0.342     0.608     1.225
   117   1 h        0.804     0.350     0.588     1.204
   118   8 o        1.608    -0.681    27.212     7.040
   119   1 h        0.805     0.328     0.642     1.259
   120   1 h        0.803     0.345     0.599     1.216
   121   8 o        1.608    -0.702    27.762     7.111
   122   1 h        0.803     0.350     0.588     1.204
   123   1 h        0.803     0.353     0.581     1.198
   124   8 o        1.607    -0.675    27.048     7.019
   125   1 h        0.806     0.315     0.677     1.292
   126   1 h        0.802     0.359     0.569     1.185
   127   8 o        1.609    -0.661    26.684     6.972
   128   1 h        0.805     0.331     0.636     1.253
   129   1 h        0.804     0.337     0.619     1.236
   130   8 o        1.605    -0.699    27.687     7.102
   131   1 h        0.802     0.359     0.568     1.184
   132   1 h        0.803     0.346     0.598     1.214
   133   8 o        1.609    -0.665    26.808     6.988
   134   1 h        0.804     0.339     0.616     1.233
   135   1 h        0.805     0.320     0.664     1.280
   136   8 o        1.606    -0.684    27.296     7.051
   137   1 h        0.802     0.339     0.614     1.231
   138   1 h        0.804     0.338     0.616     1.233
   139   8 o        1.608    -0.684    27.294     7.051
   140   1 h        0.805     0.356     0.574     1.190
   141   1 h        0.804     0.358     0.569     1.185
   142   8 o        1.608    -0.663    26.758     6.981
   143   1 h        0.804     0.346     0.597     1.214
   144   1 h        0.803     0.349     0.590     1.207
   145   8 o        1.609    -0.667    26.848     6.993
   146   1 h        0.803     0.341     0.609     1.226
   147   1 h        0.805     0.331     0.635     1.251
   148   8 o        1.609    -0.673    27.011     7.014
   149   1 h        0.805     0.328     0.641     1.258
   150   1 h        0.803     0.335     0.625     1.242
   151   8 o        1.606    -0.665    26.802     6.987
   152   1 h        0.803     0.329     0.640     1.256
   153   1 h        0.803     0.338     0.617     1.233
   154   8 o        1.607    -0.658    26.632     6.965
   155   1 h        0.803     0.335     0.624     1.241
   156   1 h        0.804     0.322     0.659     1.275
   157   8 o        1.609    -0.672    26.982     7.011
   158   1 h        0.804     0.342     0.607     1.224
   159   1 h        0.805     0.322     0.659     1.275
   160   8 o        1.610    -0.650    26.402     6.935
   161   1 h        0.805     0.325     0.651     1.267
   162   1 h        0.804     0.348     0.592     1.209
   163   8 o        1.604    -0.674    27.038     7.018
   164   1 h        0.806     0.316     0.676     1.291
   165   1 h        0.802     0.349     0.592     1.209
   166   8 o        1.607    -0.675    27.059     7.021
   167   1 h        0.803     0.355     0.576     1.192
   168   1 h        0.804     0.326     0.647     1.264
   169   8 o        1.609    -0.653    26.486     6.946
   170   1 h        0.805     0.334     0.626     1.243
   171   1 h        0.804     0.342     0.607     1.224
   172   8 o        1.608    -0.660    26.658     6.968
   173   1 h        0.803     0.352     0.584     1.201
   174   1 h        0.806     0.308     0.697     1.312
   175   8 o        1.607    -0.691    27.483     7.075
   176   1 h        0.804     0.351     0.587     1.203
   177   1 h        0.803     0.330     0.637     1.254
   178   8 o        1.607    -0.680    27.192     7.038
   179   1 h        0.803     0.332     0.632     1.249
   180   1 h        0.804     0.325     0.650     1.266
   181   8 o        1.607    -0.681    27.222     7.042
   182   1 h        0.803     0.326     0.649     1.265
   183   1 h        0.804     0.349     0.591     1.207
   184   8 o        1.609    -0.660    26.673     6.970
   185   1 h        0.805     0.335     0.626     1.242
   186   1 h        0.804     0.316     0.674     1.290
   187   8 o        1.609    -0.659    26.642     6.966
   188   1 h        0.804     0.334     0.627     1.243
   189   1 h        0.805     0.334     0.628     1.245
   190   8 o        1.605    -0.695    27.578     7.088
   191   1 h        0.803     0.345     0.601     1.218
   192   1 h        0.803     0.336     0.622     1.239
   193   8 o        1.608    -0.664    26.770     6.983
   194   1 h        0.803     0.353     0.581     1.197
   195   1 h        0.805     0.320     0.664     1.280
   196   8 o        1.608    -0.674    27.040     7.018
   197   1 h        0.804     0.328     0.642     1.259
   198   1 h        0.803     0.341     0.611     1.228
   199   8 o        1.609    -0.680    27.188     7.037
   200   1 h        0.804     0.353     0.582     1.198
   201   1 h        0.805     0.346     0.597     1.213
   202   8 o        1.607    -0.696    27.609     7.092
   203   1 h        0.804     0.334     0.627     1.243
   204   1 h        0.803     0.360     0.566     1.182
   205   8 o        1.608    -0.655    26.529     6.952
   206   1 h        0.803     0.341     0.611     1.228
   207   1 h        0.805     0.325     0.650     1.267
   208   8 o        1.609    -0.677    27.102     7.026
   209   1 h        0.805     0.330     0.638     1.254
   210   1 h        0.805     0.336     0.622     1.239
   211   8 o        1.608    -0.685    27.302     7.052
   212   1 h        0.804     0.361     0.564     1.179
   213   1 h        0.804     0.342     0.607     1.224
   214   8 o        1.607    -0.672    26.984     7.011
   215   1 h        0.803     0.350     0.589     1.206
   216   1 h        0.804     0.334     0.628     1.245
   217   8 o        1.606    -0.698    27.656     7.098
   218   1 h        0.802     0.360     0.566     1.182
   219   1 h        0.805     0.321     0.661     1.277
   220   8 o        1.608    -0.682    27.237     7.044
   221   1 h        0.805     0.326     0.647     1.263
   222   1 h        0.803     0.337     0.621     1.238
   223   8 o        1.608    -0.652    26.460     6.943
   224   1 h        0.805     0.312     0.685     1.300
   225   1 h        0.803     0.332     0.632     1.249
   226   8 o        1.607    -0.685    27.309     7.053
   227   1 h        0.804     0.345     0.600     1.217
   228   1 h        0.804     0.346     0.597     1.214
   229   8 o        1.609    -0.659    26.652     6.968
   230   1 h        0.804     0.338     0.618     1.235
   231   1 h        0.805     0.344     0.602     1.219
   232   8 o        1.609    -0.668    26.862     6.995
   233   1 h        0.804     0.342     0.608     1.225
   234   1 h        0.805     0.330     0.637     1.253
   235   8 o        1.608    -0.665    26.790     6.986
   236   1 h        0.806     0.309     0.693     1.308
   237   1 h        0.803     0.354     0.578     1.195
   238   8 o        1.606    -0.684    27.288     7.050
   239   1 h        0.803     0.352     0.584     1.200
   240   1 h        0.803     0.346     0.599     1.216
   241   8 o        1.607    -0.670    26.936     7.005
   242   1 h        0.804     0.328     0.642     1.258
   243   1 h        0.802     0.344     0.603     1.220
   244   8 o        1.608    -0.686    27.333     7.056
   245   1 h        0.804     0.336     0.623     1.240
   246   1 h        0.804     0.335     0.625     1.241
   247   8 o        1.607    -0.695    27.590     7.089
   248   1 h        0.803     0.349     0.591     1.207
   249   1 h        0.804     0.329     0.639     1.256
   250   8 o        1.605    -0.682    27.251     7.045
   251   1 h        0.802     0.340     0.611     1.228
   252   1 h        0.804     0.343     0.606     1.222
   253   8 o        1.608    -0.674    27.026     7.016
   254   1 h        0.804     0.332     0.632     1.249
   255   1 h        0.805     0.329     0.639     1.256
   256   8 o        1.608    -0.648    26.363     6.930
   257   1 h        0.803     0.373     0.537     1.152
   258   1 h        0.806     0.309     0.694     1.308
   259   8 o        1.607    -0.665    26.788     6.985
   260   1 h        0.803     0.327     0.644     1.261
   261   1 h        0.804     0.348     0.594     1.210
   262   8 o        1.605    -0.662    26.724     6.977
   263   1 h        0.801     0.354     0.580     1.197
   264   1 h        0.806     0.313     0.682     1.297
   265   8 o        1.609    -0.671    26.941     7.005
   266   1 h        0.804     0.344     0.602     1.219
   267   1 h        0.805     0.328     0.642     1.259
   268   8 o        1.609    -0.654    26.509     6.949
   269   1 h        0.805     0.325     0.652     1.268
   270   1 h        0.803     0.331     0.635     1.252
   271   8 o        1.609    -0.675    27.056     7.020
   272   1 h        0.804     0.347     0.595     1.211
   273   1 h        0.805     0.331     0.634     1.251
   274   8 o        1.608    -0.677    27.102     7.026
   275   1 h        0.804     0.351     0.586     1.203
   276   1 h        0.804     0.322     0.658     1.274
   277   8 o        1.608    -0.660    26.661     6.969
   278   1 h        0.802     0.355     0.578     1.194
   279   1 h        0.806     0.311     0.689     1.304
   280   8 o        1.608    -0.656    26.559     6.955
   281   1 h        0.804     0.336     0.622     1.239
   282   1 h        0.804     0.342     0.607     1.224
   283   8 o        1.609    -0.662    26.716     6.976
   284   1 h        0.803     0.352     0.584     1.201
   285   1 h        0.806     0.315     0.678     1.293
   286   8 o        1.603    -0.701    27.739     7.108
   287   1 h        0.802     0.352     0.584     1.201
   288   1 h        0.802     0.332     0.633     1.250
   289   8 o        1.607    -0.684    27.294     7.051
   290   1 h        0.801     0.361     0.564     1.180
   291   1 h        0.806     0.307     0.699     1.314
   292   8 o        1.609    -0.679    27.155     7.033
   293   1 h        0.804     0.335     0.624     1.241
   294   1 h        0.805     0.332     0.631     1.248
   295   8 o        1.608    -0.667    26.851     6.994
   296   1 h        0.804     0.324     0.654     1.270
   297   1 h        0.803     0.349     0.591     1.208
   298   8 o        1.608    -0.674    27.039     7.018
   299   1 h        0.804     0.335     0.624     1.241
   300   1 h        0.804     0.340     0.613     1.229
   301   8 o        1.606    -0.693    27.527     7.081
   302   1 h        0.802     0.350     0.588     1.205
   303   1 h        0.804     0.339     0.614     1.231
   304   8 o        1.608    -0.680    27.188     7.037
   305   1 h        0.805     0.334     0.627     1.244
   306   1 h        0.804     0.357     0.573     1.189
   307   8 o        1.608    -0.686    27.344     7.058
   308   1 h        0.804     0.336     0.622     1.239
   309   1 h        0.804     0.350     0.588     1.205
   310   8 o        1.607    -0.704    27.809     7.117
   311   1 h        0.804     0.336     0.623     1.240
   312   1 h        0.803     0.342     0.607     1.224
   313   8 o        1.607    -0.685    27.320     7.054
   314   1 h        0.804     0.356     0.575     1.191
   315   1 h        0.804     0.328     0.643     1.259
   316   8 o        1.607    -0.675    27.052     7.020
   317   1 h        0.804     0.352     0.583     1.199
   318   1 h        0.803     0.327     0.646     1.263
   319   8 o        1.609    -0.674    27.023     7.016
   320   1 h        0.804     0.330     0.637     1.254
   321   1 h        0.804     0.333     0.631     1.247
   322   8 o        1.608    -0.679    27.149     7.032
   323   1 h        0.805     0.331     0.636     1.253
   324   1 h        0.803     0.343     0.604     1.221
   325   8 o        1.608    -0.678    27.126     7.029
   326   1 h        0.803     0.347     0.596     1.213
   327   1 h        0.804     0.340     0.613     1.230
   328   8 o        1.606    -0.689    27.419     7.067
   329   1 h        0.803     0.349     0.590     1.206
   330   1 h        0.803     0.331     0.635     1.251
   331   8 o        1.609    -0.650    26.411     6.936
   332   1 h        0.804     0.346     0.598     1.215
   333   1 h        0.806     0.314     0.681     1.296
   334   8 o        1.607    -0.679    27.155     7.033
   335   1 h        0.805     0.319     0.667     1.283
   336   1 h        0.802     0.350     0.589     1.206
   337   8 o        1.609    -0.660    26.662     6.969
   338   1 h        0.806     0.316     0.675     1.290
   339   1 h        0.804     0.346     0.598     1.214
   340   8 o        1.607    -0.668    26.871     6.996
   341   1 h        0.802     0.329     0.640     1.256
   342   1 h        0.805     0.332     0.633     1.250
   343   8 o        1.608    -0.678    27.136     7.031
   344   1 h        0.804     0.359     0.567     1.183
   345   1 h        0.804     0.324     0.652     1.269
   346   8 o        1.609    -0.670    26.937     7.005
   347   1 h        0.804     0.345     0.600     1.217
   348   1 h        0.805     0.326     0.646     1.263
   349   8 o        1.608    -0.675    27.052     7.020
   350   1 h        0.804     0.352     0.583     1.200
   351   1 h        0.804     0.332     0.632     1.249
   352   8 o        1.606    -0.688    27.385     7.063
   353   1 h        0.803     0.330     0.637     1.254
   354   1 h        0.804     0.355     0.577     1.193
   355   8 o        1.608    -0.678    27.140     7.031
   356   1 h        0.806     0.303     0.711     1.325
   357   1 h        0.802     0.363     0.560     1.175
   358   8 o        1.607    -0.681    27.218     7.041
   359   1 h        0.806     0.305     0.706     1.320
   360   1 h        0.801     0.352     0.585     1.202
   361   8 o        1.608    -0.668    26.864     6.995
   362   1 h        0.803     0.346     0.597     1.214
   363   1 h        0.805     0.327     0.646     1.262
   364   8 o        1.609    -0.676    27.076     7.023
   365   1 h        0.804     0.332     0.632     1.248
   366   1 h        0.805     0.335     0.625     1.242
   367   8 o        1.609    -0.689    27.415     7.067
   368   1 h        0.804     0.338     0.617     1.234
   369   1 h        0.804     0.336     0.623     1.240
   370   8 o        1.607    -0.676    27.082     7.024
   371   1 h        0.803     0.327     0.646     1.262
   372   1 h        0.804     0.353     0.582     1.198
   373   8 o        1.608    -0.685    27.322     7.055
   374   1 h        0.804     0.334     0.628     1.245
   375   1 h        0.803     0.339     0.614     1.231
   376   8 o        1.605    -0.687    27.363     7.060
   377   1 h        0.802     0.336     0.624     1.241
   378   1 h        0.803     0.330     0.638     1.254
   379   8 o        1.608    -0.686    27.346     7.058
   380   1 h        0.802     0.354     0.579     1.196
   381   1 h        0.805     0.318     0.668     1.284
   382   8 o        1.608    -0.650    26.416     6.937
   383   1 h        0.803     0.351     0.585     1.202
   384   1 h        0.806     0.318     0.670     1.285
   385   8 o        1.606    -0.677    27.106     7.027
   386   1 h        0.803     0.340     0.612     1.229
   387   1 h        0.803     0.348     0.593     1.210
   388   8 o        1.607    -0.694    27.553     7.084
   389   1 h        0.804     0.341     0.609     1.226
   390   1 h        0.803     0.341     0.609     1.226
   391   8 o        1.610    -0.681    27.212     7.041
   392   1 h        0.803     0.341     0.610     1.227
   393   1 h        0.804     0.341     0.610     1.227
   394   8 o        1.607    -0.664    26.771     6.983
   395   1 h        0.804     0.341     0.609     1.226
   396   1 h        0.803     0.331     0.634     1.251
   397   8 o        1.609    -0.685    27.315     7.054
   398   1 h        0.804     0.341     0.611     1.228
   399   1 h        0.804     0.346     0.597     1.214
   400   8 o        1.607    -0.686    27.331     7.056
   401   1 h        0.803     0.353     0.582     1.199
   402   1 h        0.803     0.340     0.612     1.229
   403   8 o        1.607    -0.672    26.976     7.010
   404   1 h        0.802     0.347     0.595     1.211
   405   1 h        0.805     0.326     0.647     1.263
   406   8 o        1.608    -0.676    27.069     7.022
   407   1 h        0.803     0.340     0.612     1.229
   408   1 h        0.804     0.331     0.634     1.251
   409   8 o        1.608    -0.682    27.227     7.042
   410   1 h        0.804     0.332     0.631     1.248
   411   1 h        0.804     0.334     0.627     1.244
   412   8 o        1.608    -0.680    27.184     7.037
   413   1 h        0.803     0.349     0.590     1.207
   414   1 h        0.805     0.325     0.650     1.266
   415   8 o        1.607    -0.703    27.786     7.114
   416   1 h        0.801     0.358     0.570     1.186
   417   1 h        0.803     0.337     0.620     1.237
   418   8 o        1.607    -0.694    27.543     7.083
   419   1 h        0.804     0.331     0.634     1.251
   420   1 h        0.803     0.357     0.572     1.188
   421   8 o        1.608    -0.667    26.859     6.995
   422   1 h        0.803     0.363     0.559     1.174
   423   1 h        0.805     0.316     0.675     1.291
   424   8 o        1.609    -0.649    26.400     6.935
   425   1 h        0.805     0.313     0.682     1.297
   426   1 h        0.803     0.357     0.572     1.188
   427   8 o        1.607    -0.692    27.505     7.078
   428   1 h        0.804     0.322     0.659     1.275
   429   1 h        0.804     0.319     0.665     1.281
   430   8 o        1.609    -0.665    26.796     6.986
   431   1 h        0.805     0.319     0.668     1.283
   432   1 h        0.804     0.344     0.602     1.218
   433   8 o        1.606    -0.664    26.768     6.983
   434   1 h        0.801     0.346     0.599     1.215
   435   1 h        0.806     0.317     0.672     1.288
   436   8 o        1.608    -0.691    27.462     7.073
   437   1 h        0.804     0.330     0.638     1.255
   438   1 h        0.804     0.337     0.619     1.236
   439   8 o        1.610    -0.669    26.905     7.001
   440   1 h        0.805     0.332     0.632     1.249
   441   1 h        0.803     0.346     0.597     1.213
   442   8 o        1.605    -0.702    27.757     7.111
   443   1 h        0.804     0.334     0.628     1.245
   444   1 h        0.802     0.357     0.572     1.188
   445   8 o        1.609    -0.673    27.008     7.014
   446   1 h        0.804     0.341     0.610     1.227
   447   1 h        0.804     0.340     0.613     1.230
   448   8 o        1.607    -0.663    26.745     6.980
   449   1 h        0.803     0.331     0.634     1.251
   450   1 h        0.804     0.336     0.623     1.240
   451   8 o        1.608    -0.666    26.812     6.989
   452   1 h        0.805     0.324     0.652     1.269
   453   1 h        0.803     0.365     0.554     1.169
   454   8 o        1.608    -0.656    26.560     6.956
   455   1 h        0.806     0.316     0.676     1.291
   456   1 h        0.802     0.351     0.587     1.203
   457   8 o        1.608    -0.665    26.788     6.985
   458   1 h        0.804     0.325     0.649     1.266
   459   1 h        0.804     0.334     0.627     1.244
   460   8 o        1.608    -0.655    26.533     6.952
   461   1 h        0.804     0.326     0.649     1.265
   462   1 h        0.803     0.330     0.639     1.255
   463   8 o        1.608    -0.668    26.887     6.998
   464   1 h        0.804     0.325     0.652     1.268
   465   1 h        0.803     0.346     0.599     1.215
   466   8 o        1.605    -0.659    26.653     6.968
   467   1 h        0.806     0.314     0.680     1.295
   468   1 h        0.801     0.346     0.598     1.215
   469   8 o        1.608    -0.683    27.265     7.047
   470   1 h        0.804     0.349     0.591     1.208
   471   1 h        0.804     0.322     0.657     1.274
   472   8 o        1.607    -0.675    27.043     7.019
   473   1 h        0.802     0.355     0.577     1.194
   474   1 h        0.805     0.329     0.639     1.256
   475   8 o        1.609    -0.672    26.969     7.009
   476   1 h        0.805     0.317     0.672     1.288
   477   1 h        0.803     0.355     0.576     1.193
   478   8 o        1.609    -0.663    26.744     6.980
   479   1 h        0.805     0.328     0.641     1.258
   480   1 h        0.804     0.348     0.592     1.209
   481   8 o        1.608    -0.675    27.065     7.021
   482   1 h        0.804     0.357     0.573     1.189
   483   1 h        0.804     0.334     0.627     1.244
   484   8 o        1.607    -0.668    26.876     6.997
   485   1 h        0.804     0.331     0.634     1.250
   486   1 h        0.803     0.338     0.617     1.234
   487   8 o        1.604    -0.673    27.004     7.013
   488   1 h        0.802     0.350     0.589     1.206
   489   1 h        0.806     0.318     0.669     1.285
   490   8 o        1.604    -0.687    27.358     7.059
   491   1 h        0.803     0.357     0.573     1.190
   492   1 h        0.802     0.334     0.627     1.244
   493   8 o        1.608    -0.672    26.978     7.010
   494   1 h        0.805     0.324     0.654     1.271
   495   1 h        0.802     0.352     0.583     1.200
   496   8 o        1.606    -0.659    26.653     6.968
   497   1 h        0.806     0.310     0.692     1.307
   498   1 h        0.801     0.346     0.599     1.216
   499   8 o        1.608    -0.680    27.194     7.038
   500   1 h        0.804     0.336     0.622     1.239
   501   1 h        0.803     0.335     0.624     1.241
   502   8 o        1.609    -0.676    27.073     7.022
   503   1 h        0.804     0.335     0.626     1.243
   504   1 h        0.805     0.335     0.623     1.240
   505   8 o        1.610    -0.667    26.837     6.992
   506   1 h        0.804     0.337     0.619     1.236
   507   1 h        0.805     0.323     0.656     1.272
   508   8 o        1.607    -0.689    27.419     7.067
   509   1 h        0.804     0.354     0.579     1.196
   510   1 h        0.803     0.334     0.628     1.245
   511   8 o        1.607    -0.684    27.299     7.052
   512   1 h        0.803     0.351     0.587     1.203
   513   1 h        0.804     0.326     0.648     1.264
   514   8 o        1.607    -0.692    27.490     7.076
   515   1 h        0.803     0.337     0.619     1.236
   516   1 h        0.804     0.330     0.638     1.255
   517   8 o        1.608    -0.652    26.477     6.945
   518   1 h        0.802     0.345     0.600     1.217
   519   1 h        0.806     0.309     0.694     1.309
   520   8 o        1.607    -0.654    26.521     6.950
   521   1 h        0.806     0.308     0.697     1.311
   522   1 h        0.801     0.357     0.573     1.189
   523   8 o        1.610    -0.641    26.181     6.906
   524   1 h        0.805     0.324     0.654     1.270
   525   1 h        0.804     0.342     0.607     1.223
   526   8 o        1.609    -0.666    26.826     6.990
   527   1 h        0.803     0.341     0.610     1.227
   528   1 h        0.805     0.320     0.665     1.281
   529   8 o        1.610    -0.654    26.504     6.948
   530   1 h        0.805     0.329     0.641     1.258
   531   1 h        0.805     0.325     0.651     1.267

 Mol. C6AA /au·bohr⁶  :    1428635.418013
 Mol. C8AA /au·bohr⁸  :   25907322.865740
 Mol. α(0) /au        :       1680.149923


Wiberg/Mayer (AO) data.
largest (>0.10) Wiberg bond orders for each atom

 ---------------------------------------------------------------------------
     #   Z sym  total        # sym  WBO       # sym  WBO       # sym  WBO
 ---------------------------------------------------------------------------
     1   8 o    1.864 --     2 h    0.875     3 h    0.807
     2   1 h    0.894 --     1 o    0.875
     3   1 h    0.878 --     1 o    0.807
     4   8 o    1.840 --     5 h    0.848     6 h    0.834
     5   1 h    0.892 --     4 o    0.848
     6   1 h    0.878 --     4 o    0.834
     7   8 o    1.856 --     9 h    0.831     8 h    0.814
     8   1 h    0.877 --     7 o    0.814
     9   1 h    0.885 --     7 o    0.831
    10   8 o    1.856 --    11 h    0.836    12 h    0.823
    11   1 h    0.878 --    10 o    0.836
    12   1 h    0.885 --    10 o    0.823
    13   8 o    1.824 --    14 h    0.845    15 h    0.832
    14   1 h    0.896 --    13 o    0.845
    15   1 h    0.884 --    13 o    0.832
    16   8 o    1.855 --    18 h    0.823    17 h    0.819
    17   1 h    0.891 --    16 o    0.819
    18   1 h    0.880 --    16 o    0.823
    19   8 o    1.857 --    20 h    0.827    21 h    0.801
    20   1 h    0.880 --    19 o    0.827
    21   1 h    0.878 --    19 o    0.801
    22   8 o    1.845 --    24 h    0.818    23 h    0.765
    23   1 h    0.872 --    22 o    0.765
    24   1 h    0.880 --    22 o    0.818
    25   8 o    1.852 --    27 h    0.815    26 h    0.813
    26   1 h    0.875 --    25 o    0.813
    27   1 h    0.878 --    25 o    0.815
    28   8 o    1.858 --    29 h    0.835    30 h    0.833
    29   1 h    0.879 --    28 o    0.835
    30   1 h    0.886 --    28 o    0.833
    31   8 o    1.809 --    33 h    0.828    32 h    0.817
    32   1 h    0.888 --    31 o    0.817
    33   1 h    0.883 --    31 o    0.828
    34   8 o    1.857 --    36 h    0.825    35 h    0.810
    35   1 h    0.879 --    34 o    0.810
    36   1 h    0.884 --    34 o    0.825
    37   8 o    1.826 --    39 h    0.833    38 h    0.827
    38   1 h    0.891 --    37 o    0.827
    39   1 h    0.891 --    37 o    0.833
    40   8 o    1.792 --    41 h    0.826    42 h    0.813
    41   1 h    0.886 --    40 o    0.826
    42   1 h    0.891 --    40 o    0.813
    43   8 o    1.863 --    44 h    0.841    45 h    0.826
    44   1 h    0.892 --    43 o    0.841
    45   1 h    0.889 --    43 o    0.826
    46   8 o    1.878 --    48 h    0.855    47 h    0.832
    47   1 h    0.887 --    46 o    0.832
    48   1 h    0.890 --    46 o    0.855
    49   8 o    1.884 --    51 h    0.827    50 h    0.819
    50   1 h    0.873 --    49 o    0.819
    51   1 h    0.887 --    49 o    0.827
    52   8 o    1.892 --    53 h    0.839    54 h    0.794
    53   1 h    0.885 --    52 o    0.839
    54   1 h    0.868 --    52 o    0.794
    55   8 o    1.856 --    57 h    0.847    56 h    0.826
    56   1 h    0.876 --    55 o    0.826
    57   1 h    0.896 --    55 o    0.847
    58   8 o    1.842 --    59 h    0.817    60 h    0.813
    59   1 h    0.884 --    58 o    0.817
    60   1 h    0.874 --    58 o    0.813
    61   8 o    1.865 --    63 h    0.874    62 h    0.786
    62   1 h    0.867 --    61 o    0.786
    63   1 h    0.894 --    61 o    0.874
    64   8 o    1.875 --    66 h    0.811    65 h    0.810
    65   1 h    0.877 --    64 o    0.810
    66   1 h    0.877 --    64 o    0.811
    67   8 o    1.816 --    69 h    0.860    68 h    0.825
    68   1 h    0.895 --    67 o    0.825
    69   1 h    0.895 --    67 o    0.860
    70   8 o    1.862 --    71 h    0.808    72 h    0.787
    71   1 h    0.876 --    70 o    0.808
    72   1 h    0.879 --    70 o    0.787
    73   8 o    1.855 --    75 h    0.844    74 h    0.788
    74   1 h    0.877 --    73 o    0.788
    75   1 h    0.880 --    73 o    0.844
    76   8 o    1.827 --    77 h    0.853    78 h    0.816
    77   1 h    0.888 --    76 o    0.853
    78   1 h    0.884 --    76 o    0.816
    79   8 o    1.843 --    80 h    0.838    81 h    0.828
    80   1 h    0.890 --    79 o    0.838
    81   1 h    0.877 --    79 o    0.828
    82   8 o    1.846 --    83 h    0.832    84 h    0.810
    83   1 h    0.897 --    82 o    0.832
    84   1 h    0.877 --    82 o    0.810
    85   8 o    1.830 --    87 h    0.899    86 h    0.791
    86   1 h    0.869 --    85 o    0.791
    87   1 h    0.904 --    85 o    0.899
    88   8 o    1.803 --    90 h    0.862    89 h    0.817
    89   1 h    0.879 --    88 o    0.817
    90   1 h    0.894 --    88 o    0.862
    91   8 o    1.847 --    92 h    0.845    93 h    0.808
    92   1 h    0.894 --    91 o    0.845
    93   1 h    0.888 --    91 o    0.808
    94   8 o    1.866 --    96 h    0.842    95 h    0.798
    95   1 h    0.888 --    94 o    0.798
    96   1 h    0.890 --    94 o    0.842
    97   8 o    1.821 --    98 h    0.855    99 h    0.840
    98   1 h    0.895 --    97 o    0.855
    99   1 h    0.896 --    97 o    0.840
   100   8 o    1.890 --   101 h    0.834   102 h    0.808
   101   1 h    0.883 --   100 o    0.834
   102   1 h    0.891 --   100 o    0.808
   103   8 o    1.872 --   105 h    0.820   104 h    0.819
   104   1 h    0.873 --   103 o    0.819
   105   1 h    0.884 --   103 o    0.820
   106   8 o    1.833 --   107 h    0.897   108 h    0.787
   107   1 h    0.907 --   106 o    0.897
   108   1 h    0.868 --   106 o    0.787
   109   8 o    1.874 --   111 h    0.845   110 h    0.812
   110   1 h    0.883 --   109 o    0.812
   111   1 h    0.893 --   109 o    0.845
   112   8 o    1.829 --   113 h    0.806   114 h    0.798
   113   1 h    0.879 --   112 o    0.806
   114   1 h    0.881 --   112 o    0.798
   115   8 o    1.860 --   116 h    0.828   117 h    0.822
   116   1 h    0.883 --   115 o    0.828
   117   1 h    0.877 --   115 o    0.822
   118   8 o    1.828 --   119 h    0.859   120 h    0.826
   119   1 h    0.892 --   118 o    0.859
   120   1 h    0.881 --   118 o    0.826
   121   8 o    1.865 --   122 h    0.808   123 h    0.782
   122   1 h    0.877 --   121 o    0.808
   123   1 h    0.875 --   121 o    0.782
   124   8 o    1.832 --   125 h    0.890   126 h    0.790
   125   1 h    0.900 --   124 o    0.890
   126   1 h    0.871 --   124 o    0.790
   127   8 o    1.837 --   128 h    0.856   129 h    0.844
   128   1 h    0.891 --   127 o    0.856
   129   1 h    0.886 --   127 o    0.844
   130   8 o    1.872 --   132 h    0.800   131 h    0.790
   131   1 h    0.871 --   130 o    0.790
   132   1 h    0.880 --   130 o    0.800
   133   8 o    1.847 --   135 h    0.854   134 h    0.817
   134   1 h    0.885 --   133 o    0.817
   135   1 h    0.898 --   133 o    0.854
   136   8 o    1.853 --   138 h    0.831   137 h    0.814
   137   1 h    0.885 --   136 o    0.814
   138   1 h    0.885 --   136 o    0.831
   139   8 o    1.880 --   140 h    0.828   141 h    0.804
   140   1 h    0.873 --   139 o    0.828
   141   1 h    0.872 --   139 o    0.804
   142   8 o    1.894 --   143 h    0.840   144 h    0.820
   143   1 h    0.880 --   142 o    0.840
   144   1 h    0.878 --   142 o    0.820
   145   8 o    1.855 --   147 h    0.853   146 h    0.831
   146   1 h    0.883 --   145 o    0.831
   147   1 h    0.890 --   145 o    0.853
   148   8 o    1.823 --   149 h    0.872   150 h    0.830
   149   1 h    0.892 --   148 o    0.872
   150   1 h    0.888 --   148 o    0.830
   151   8 o    1.892 --   153 h    0.823   152 h    0.821
   152   1 h    0.892 --   151 o    0.821
   153   1 h    0.885 --   151 o    0.823
   154   8 o    1.873 --   156 h    0.854   155 h    0.818
   155   1 h    0.888 --   154 o    0.818
   156   1 h    0.896 --   154 o    0.854
   157   8 o    1.820 --   159 h    0.870   158 h    0.834
   158   1 h    0.883 --   157 o    0.834
   159   1 h    0.896 --   157 o    0.870
   160   8 o    1.853 --   161 h    0.875   162 h    0.843
   161   1 h    0.894 --   160 o    0.875
   162   1 h    0.879 --   160 o    0.843
   163   8 o    1.851 --   164 h    0.894   165 h    0.768
   164   1 h    0.900 --   163 o    0.894
   165   1 h    0.878 --   163 o    0.768   415 o    0.108
   166   8 o    1.870 --   168 h    0.838   167 h    0.814
   167   1 h    0.874 --   166 o    0.814
   168   1 h    0.893 --   166 o    0.838
   169   8 o    1.857 --   170 h    0.861   171 h    0.841
   170   1 h    0.888 --   169 o    0.861
   171   1 h    0.883 --   169 o    0.841
   172   8 o    1.828 --   174 h    0.898   173 h    0.808
   173   1 h    0.876 --   172 o    0.808
   174   1 h    0.905 --   172 o    0.898
   175   8 o    1.850 --   177 h    0.822   176 h    0.800
   176   1 h    0.877 --   175 o    0.800
   177   1 h    0.891 --   175 o    0.822
   178   8 o    1.826 --   180 h    0.844   179 h    0.820
   179   1 h    0.890 --   178 o    0.820
   180   1 h    0.894 --   178 o    0.844
   181   8 o    1.857 --   182 h    0.828   183 h    0.813
   182   1 h    0.894 --   181 o    0.828
   183   1 h    0.878 --   181 o    0.813
   184   8 o    1.817 --   186 h    0.856   185 h    0.853
   185   1 h    0.888 --   184 o    0.853
   186   1 h    0.900 --   184 o    0.856
   187   8 o    1.843 --   189 h    0.863   188 h    0.847
   188   1 h    0.888 --   187 o    0.847
   189   1 h    0.889 --   187 o    0.863
   190   8 o    1.857 --   192 h    0.822   191 h    0.799
   191   1 h    0.881 --   190 o    0.799
   192   1 h    0.887 --   190 o    0.822
   193   8 o    1.861 --   195 h    0.878   194 h    0.798
   194   1 h    0.875 --   193 o    0.798
   195   1 h    0.898 --   193 o    0.878
   196   8 o    1.853 --   197 h    0.836   198 h    0.815
   197   1 h    0.892 --   196 o    0.836
   198   1 h    0.884 --   196 o    0.815
   199   8 o    1.855 --   201 h    0.837   200 h    0.816
   200   1 h    0.876 --   199 o    0.816
   201   1 h    0.880 --   199 o    0.837
   202   8 o    1.837 --   203 h    0.850   204 h    0.795
   203   1 h    0.888 --   202 o    0.850
   204   1 h    0.871 --   202 o    0.795
   205   8 o    1.864 --   207 h    0.861   206 h    0.822
   206   1 h    0.884 --   205 o    0.822
   207   1 h    0.894 --   205 o    0.861
   208   8 o    1.833 --   209 h    0.847   210 h    0.838
   209   1 h    0.891 --   208 o    0.847
   210   1 h    0.887 --   208 o    0.838
   211   8 o    1.857 --   212 h    0.829   213 h    0.823
   212   1 h    0.870 --   211 o    0.829
   213   1 h    0.883 --   211 o    0.823
   214   8 o    1.879 --   216 h    0.832   215 h    0.814
   215   1 h    0.878 --   214 o    0.814
   216   1 h    0.889 --   214 o    0.832
   217   8 o    1.823 --   219 h    0.868   218 h    0.774
   218   1 h    0.870 --   217 o    0.774
   219   1 h    0.897 --   217 o    0.868
   220   8 o    1.825 --   221 h    0.855   222 h    0.822
   221   1 h    0.893 --   220 o    0.855
   222   1 h    0.887 --   220 o    0.822
   223   8 o    1.838 --   224 h    0.880   225 h    0.835
   224   1 h    0.902 --   223 o    0.880
   225   1 h    0.890 --   223 o    0.835
   226   8 o    1.856 --   228 h    0.830   227 h    0.830
   227   1 h    0.881 --   226 o    0.830
   228   1 h    0.880 --   226 o    0.830
   229   8 o    1.865 --   231 h    0.839   230 h    0.839
   230   1 h    0.886 --   229 o    0.839
   231   1 h    0.882 --   229 o    0.839
   232   8 o    1.835 --   234 h    0.867   233 h    0.841
   233   1 h    0.883 --   232 o    0.841
   234   1 h    0.891 --   232 o    0.867
   235   8 o    1.829 --   236 h    0.901   237 h    0.810
   236   1 h    0.904 --   235 o    0.901
   237   1 h    0.874 --   235 o    0.810
   238   8 o    1.891 --   240 h    0.817   239 h    0.798
   239   1 h    0.876 --   238 o    0.798
   240   1 h    0.881 --   238 o    0.817
   241   8 o    1.856 --   242 h    0.849   243 h    0.811
   242   1 h    0.892 --   241 o    0.849
   243   1 h    0.882 --   241 o    0.811
   244   8 o    1.808 --   245 h    0.845   246 h    0.838
   245   1 h    0.887 --   244 o    0.845
   246   1 h    0.888 --   244 o    0.838
   247   8 o    1.820 --   249 h    0.837   248 h    0.803
   248   1 h    0.878 --   247 o    0.803
   249   1 h    0.892 --   247 o    0.837
   250   8 o    1.869 --   252 h    0.824   251 h    0.800
   251   1 h    0.884 --   250 o    0.800
   252   1 h    0.882 --   250 o    0.824
   253   8 o    1.831 --   255 h    0.858   254 h    0.830
   254   1 h    0.890 --   253 o    0.830
   255   1 h    0.892 --   253 o    0.858
   256   8 o    1.871 --   258 h    0.897   257 h    0.803
   257   1 h    0.861 --   256 o    0.803
   258   1 h    0.904 --   256 o    0.897
   259   8 o    1.883 --   261 h    0.829   260 h    0.828
   260   1 h    0.893 --   259 o    0.828
   261   1 h    0.879 --   259 o    0.829
   262   8 o    1.855 --   264 h    0.897   263 h    0.785
   263   1 h    0.875 --   262 o    0.785
   264   1 h    0.902 --   262 o    0.897
   265   8 o    1.828 --   267 h    0.876   266 h    0.827
   266   1 h    0.881 --   265 o    0.827
   267   1 h    0.892 --   265 o    0.876
   268   8 o    1.842 --   269 h    0.875   270 h    0.825
   269   1 h    0.895 --   268 o    0.875
   270   1 h    0.890 --   268 o    0.825
   271   8 o    1.830 --   273 h    0.863   272 h    0.834
   272   1 h    0.879 --   271 o    0.834
   273   1 h    0.890 --   271 o    0.863
   274   8 o    1.833 --   276 h    0.843   275 h    0.826
   275   1 h    0.877 --   274 o    0.826
   276   1 h    0.896 --   274 o    0.843
   277   8 o    1.838 --   279 h    0.897   278 h    0.805
   278   1 h    0.874 --   277 o    0.805
   279   1 h    0.903 --   277 o    0.897
   280   8 o    1.890 --   281 h    0.840   282 h    0.830
   281   1 h    0.887 --   280 o    0.840
   282   1 h    0.883 --   280 o    0.830
   283   8 o    1.827 --   285 h    0.895   284 h    0.821
   284   1 h    0.876 --   283 o    0.821
   285   1 h    0.901 --   283 o    0.895
   286   8 o    1.851 --   288 h    0.813   287 h    0.786
   287   1 h    0.876 --   286 o    0.786
   288   1 h    0.890 --   286 o    0.813
   289   8 o    1.815 --   291 h    0.895   290 h    0.780
   290   1 h    0.870 --   289 o    0.780
   291   1 h    0.906 --   289 o    0.895
   292   8 o    1.810 --   294 h    0.865   293 h    0.838
   293   1 h    0.888 --   292 o    0.838
   294   1 h    0.889 --   292 o    0.865
   295   8 o    1.870 --   296 h    0.841   297 h    0.818
   296   1 h    0.895 --   295 o    0.841
   297   1 h    0.878 --   295 o    0.818
   298   8 o    1.859 --   299 h    0.831   300 h    0.819
   299   1 h    0.888 --   298 o    0.831
   300   1 h    0.884 --   298 o    0.819
   301   8 o    1.861 --   303 h    0.838   302 h    0.796
   302   1 h    0.877 --   301 o    0.796
   303   1 h    0.885 --   301 o    0.838
   304   8 o    1.844 --   305 h    0.845   306 h    0.818
   305   1 h    0.888 --   304 o    0.845
   306   1 h    0.873 --   304 o    0.818
   307   8 o    1.831 --   308 h    0.851   309 h    0.836
   308   1 h    0.887 --   307 o    0.851
   309   1 h    0.878 --   307 o    0.836
   310   8 o    1.816 --   311 h    0.822   312 h    0.806
   311   1 h    0.887 --   310 o    0.822
   312   1 h    0.883 --   310 o    0.806
   313   8 o    1.849 --   315 h    0.829   314 h    0.817
   314   1 h    0.873 --   313 o    0.817
   315   1 h    0.892 --   313 o    0.829
   316   8 o    1.880 --   318 h    0.820   317 h    0.810
   317   1 h    0.876 --   316 o    0.810
   318   1 h    0.893 --   316 o    0.820
   319   8 o    1.827 --   320 h    0.849   321 h    0.848
   320   1 h    0.891 --   319 o    0.849
   321   1 h    0.889 --   319 o    0.848
   322   8 o    1.821 --   323 h    0.860   324 h    0.824
   323   1 h    0.891 --   322 o    0.860
   324   1 h    0.882 --   322 o    0.824
   325   8 o    1.865 --   327 h    0.839   326 h    0.804
   326   1 h    0.880 --   325 o    0.804
   327   1 h    0.885 --   325 o    0.839
   328   8 o    1.846 --   330 h    0.840   329 h    0.801
   329   1 h    0.878 --   328 o    0.801
   330   1 h    0.890 --   328 o    0.840
   331   8 o    1.833 --   333 h    0.895   332 h    0.831
   332   1 h    0.880 --   331 o    0.831
   333   1 h    0.901 --   331 o    0.895
   334   8 o    1.838 --   335 h    0.858   336 h    0.800
   335   1 h    0.898 --   334 o    0.858
   336   1 h    0.878 --   334 o    0.800
   337   8 o    1.820 --   338 h    0.893   339 h    0.825
   338   1 h    0.900 --   337 o    0.893
   339   1 h    0.880 --   337 o    0.825
   340   8 o    1.850 --   342 h    0.849   341 h    0.814
   341   1 h    0.891 --   340 o    0.814
   342   1 h    0.890 --   340 o    0.849
   343   8 o    1.838 --   345 h    0.851   344 h    0.819
   344   1 h    0.871 --   343 o    0.819
   345   1 h    0.895 --   343 o    0.851
   346   8 o    1.818 --   348 h    0.875   347 h    0.839
   347   1 h    0.881 --   346 o    0.839
   348   1 h    0.893 --   346 o    0.875
   349   8 o    1.875 --   351 h    0.833   350 h    0.817
   350   1 h    0.876 --   349 o    0.817
   351   1 h    0.890 --   349 o    0.833
   352   8 o    1.865 --   353 h    0.821   354 h    0.816
   353   1 h    0.891 --   352 o    0.821
   354   1 h    0.874 --   352 o    0.816
   355   8 o    1.818 --   356 h    0.902   357 h    0.788
   356   1 h    0.908 --   355 o    0.902
   357   1 h    0.868 --   355 o    0.788
   358   8 o    1.803 --   359 h    0.901   360 h    0.783
   359   1 h    0.907 --   358 o    0.901
   360   1 h    0.876 --   358 o    0.783
   361   8 o    1.846 --   363 h    0.878   362 h    0.815
   362   1 h    0.880 --   361 o    0.815
   363   1 h    0.893 --   361 o    0.878
   364   8 o    1.817 --   366 h    0.854   365 h    0.847
   365   1 h    0.890 --   364 o    0.847
   366   1 h    0.888 --   364 o    0.854
   367   8 o    1.797 --   368 h    0.844   369 h    0.843
   368   1 h    0.886 --   367 o    0.844
   369   1 h    0.887 --   367 o    0.843
   370   8 o    1.865 --   372 h    0.827   371 h    0.825
   371   1 h    0.893 --   370 o    0.825
   372   1 h    0.875 --   370 o    0.827
   373   8 o    1.840 --   374 h    0.844   375 h    0.824
   374   1 h    0.889 --   373 o    0.844
   375   1 h    0.885 --   373 o    0.824
   376   8 o    1.836 --   378 h    0.822   377 h    0.809
   377   1 h    0.887 --   376 o    0.809
   378   1 h    0.891 --   376 o    0.822
   379   8 o    1.810 --   381 h    0.875   380 h    0.803
   380   1 h    0.875 --   379 o    0.803
   381   1 h    0.899 --   379 o    0.875
   382   8 o    1.860 --   384 h    0.896   383 h    0.814
   383   1 h    0.876 --   382 o    0.814
   384   1 h    0.899 --   382 o    0.896
   385   8 o    1.869 --   387 h    0.824   386 h    0.814
   386   1 h    0.884 --   385 o    0.814
   387   1 h    0.879 --   385 o    0.824
   388   8 o    1.816 --   389 h    0.829   390 h    0.820
   389   1 h    0.883 --   388 o    0.829
   390   1 h    0.883 --   388 o    0.820
   391   8 o    1.857 --   393 h    0.831   392 h    0.829   488 h    0.102
   392   1 h    0.884 --   391 o    0.829
   393   1 h    0.884 --   391 o    0.831
   394   8 o    1.880 --   395 h    0.827   396 h    0.822
   395   1 h    0.883 --   394 o    0.827
   396   1 h    0.890 --   394 o    0.822
   397   8 o    1.854 --   398 h    0.835   399 h    0.828
   398   1 h    0.884 --   397 o    0.835
   399   1 h    0.880 --   397 o    0.828
   400   8 o    1.866 --   402 h    0.821   401 h    0.801
   401   1 h    0.876 --   400 o    0.801
   402   1 h    0.884 --   400 o    0.821
   403   8 o    1.832 --   405 h    0.876   404 h    0.812
   404   1 h    0.879 --   403 o    0.812
   405   1 h    0.893 --   403 o    0.876
   406   8 o    1.845 --   408 h    0.857   407 h    0.828
   407   1 h    0.884 --   406 o    0.828
   408   1 h    0.890 --   406 o    0.857
   409   8 o    1.823 --   411 h    0.844   410 h    0.839
   410   1 h    0.890 --   409 o    0.839
   411   1 h    0.888 --   409 o    0.844
   412   8 o    1.832 --   414 h    0.876   413 h    0.808
   413   1 h    0.878 --   412 o    0.808
   414   1 h    0.894 --   412 o    0.876
   415   8 o    1.873 --   417 h    0.824   416 h    0.770   165 h    0.108
   416   1 h    0.872 --   415 o    0.770
   417   1 h    0.887 --   415 o    0.824
   418   8 o    1.853 --   419 h    0.839   420 h    0.804
   419   1 h    0.890 --   418 o    0.839
   420   1 h    0.872 --   418 o    0.804
   421   8 o    1.837 --   423 h    0.884   422 h    0.811
   422   1 h    0.868 --   421 o    0.811
   423   1 h    0.900 --   421 o    0.884
   424   8 o    1.859 --   425 h    0.887   426 h    0.813
   425   1 h    0.902 --   424 o    0.887
   426   1 h    0.872 --   424 o    0.813
   427   8 o    1.787 --   429 h    0.844   428 h    0.836
   428   1 h    0.896 --   427 o    0.836
   429   1 h    0.898 --   427 o    0.844
   430   8 o    1.825 --   431 h    0.884   432 h    0.833
   431   1 h    0.898 --   430 o    0.884
   432   1 h    0.881 --   430 o    0.833
   433   8 o    1.845 --   435 h    0.892   434 h    0.792
   434   1 h    0.880 --   433 o    0.792
   435   1 h    0.899 --   433 o    0.892
   436   8 o    1.802 --   437 h    0.839   438 h    0.835
   437   1 h    0.891 --   436 o    0.839
   438   1 h    0.886 --   436 o    0.835
   439   8 o    1.843 --   440 h    0.867   441 h    0.820
   440   1 h    0.890 --   439 o    0.867
   441   1 h    0.880 --   439 o    0.820
   442   8 o    1.858 --   443 h    0.831   444 h    0.786
   443   1 h    0.889 --   442 o    0.831
   444   1 h    0.872 --   442 o    0.786
   445   8 o    1.843 --   446 h    0.852   447 h    0.847
   446   1 h    0.884 --   445 o    0.852
   447   1 h    0.885 --   445 o    0.847
   448   8 o    1.874 --   450 h    0.830   449 h    0.826
   449   1 h    0.890 --   448 o    0.826
   450   1 h    0.887 --   448 o    0.830
   451   8 o    1.866 --   452 h    0.873   453 h    0.804
   452   1 h    0.895 --   451 o    0.873
   453   1 h    0.867 --   451 o    0.804
   454   8 o    1.850 --   455 h    0.896   456 h    0.807
   455   1 h    0.900 --   454 o    0.896
   456   1 h    0.877 --   454 o    0.807
   457   8 o    1.848 --   458 h    0.850   459 h    0.835
   458   1 h    0.894 --   457 o    0.850
   459   1 h    0.888 --   457 o    0.835
   460   8 o    1.868 --   461 h    0.847   462 h    0.835
   461   1 h    0.894 --   460 o    0.847
   462   1 h    0.891 --   460 o    0.835
   463   8 o    1.856 --   464 h    0.849   465 h    0.822
   464   1 h    0.895 --   463 o    0.849
   465   1 h    0.880 --   463 o    0.822
   466   8 o    1.865 --   467 h    0.891   468 h    0.780
   467   1 h    0.901 --   466 o    0.891
   468   1 h    0.880 --   466 o    0.780
   469   8 o    1.833 --   471 h    0.846   470 h    0.827
   470   1 h    0.878 --   469 o    0.827
   471   1 h    0.896 --   469 o    0.846
   472   8 o    1.858 --   474 h    0.858   473 h    0.797
   473   1 h    0.874 --   472 o    0.797
   474   1 h    0.891 --   472 o    0.858
   475   8 o    1.821 --   476 h    0.879   477 h    0.816
   476   1 h    0.899 --   475 o    0.879
   477   1 h    0.874 --   475 o    0.816
   478   8 o    1.844 --   479 h    0.865   480 h    0.838
   479   1 h    0.892 --   478 o    0.865
   480   1 h    0.879 --   478 o    0.838
   481   8 o    1.875 --   483 h    0.827   482 h    0.818
   482   1 h    0.873 --   481 o    0.818
   483   1 h    0.888 --   481 o    0.827
   484   8 o    1.861 --   485 h    0.834   486 h    0.817
   485   1 h    0.890 --   484 o    0.834
   486   1 h    0.886 --   484 o    0.817
   487   8 o    1.847 --   489 h    0.892   488 h    0.771
   488   1 h    0.878 --   487 o    0.771   391 o    0.102
   489   1 h    0.899 --   487 o    0.892
   490   8 o    1.890 --   492 h    0.808   491 h    0.794
   491   1 h    0.873 --   490 o    0.794
   492   1 h    0.888 --   490 o    0.808
   493   8 o    1.845 --   494 h    0.873   495 h    0.802
   494   1 h    0.895 --   493 o    0.873
   495   1 h    0.876 --   493 o    0.802
   496   8 o    1.847 --   497 h    0.898   498 h    0.786
   497   1 h    0.904 --   496 o    0.898
   498   1 h    0.880 --   496 o    0.786
   499   8 o    1.814 --   500 h    0.854   501 h    0.823
   500   1 h    0.887 --   499 o    0.854
   501   1 h    0.888 --   499 o    0.823
   502   8 o    1.813 --   504 h    0.861   503 h    0.857
   503   1 h    0.888 --   502 o    0.857
   504   1 h    0.887 --   502 o    0.861
   505   8 o    1.806 --   507 h    0.866   506 h    0.842
   506   1 h    0.886 --   505 o    0.842
   507   1 h    0.895 --   505 o    0.866
   508   8 o    1.853 --   510 h    0.829   509 h    0.816
   509   1 h    0.875 --   508 o    0.816
   510   1 h    0.889 --   508 o    0.829
   511   8 o    1.834 --   513 h    0.849   512 h    0.810
   512   1 h    0.877 --   511 o    0.810
   513   1 h    0.894 --   511 o    0.849
   514   8 o    1.803 --   516 h    0.846   515 h    0.812
   515   1 h    0.886 --   514 o    0.812
   516   1 h    0.891 --   514 o    0.846
   517   8 o    1.844 --   519 h    0.900   518 h    0.807
   518   1 h    0.881 --   517 o    0.807
   519   1 h    0.904 --   517 o    0.900
   520   8 o    1.861 --   521 h    0.902   522 h    0.794
   521   1 h    0.905 --   520 o    0.902
   522   1 h    0.873 --   520 o    0.794
   523   8 o    1.851 --   524 h    0.886   525 h    0.843
   524   1 h    0.895 --   523 o    0.886
   525   1 h    0.883 --   523 o    0.843
   526   8 o    1.811 --   528 h    0.869   527 h    0.838
   527   1 h    0.884 --   526 o    0.838
   528   1 h    0.898 --   526 o    0.869
   529   8 o    1.814 --   531 h    0.866   530 h    0.866
   530   1 h    0.892 --   529 o    0.866
   531   1 h    0.894 --   529 o    0.866
 ---------------------------------------------------------------------------

Topologies differ in total number of bonds
Writing topology from bond orders to xtbtopo.mol

molecular dipole:
                 x           y           z       tot (Debye)
 q only:        0.301       1.291       3.656
   full:        0.681       1.784       4.700      12.894
molecular quadrupole (traceless):
                xx          xy          yy          xz          yz          zz
 q only:       74.485      -0.957     -90.206      28.335     -24.359      15.722
  q+dip:      102.789      -0.289    -125.744      42.199     -30.412      22.955
   full:      104.454       0.267    -127.842      41.653     -31.043      23.388


           -------------------------------------------------
          | TOTAL ENERGY             -901.407762705358 Eh   |
          | GRADIENT NORM               0.105296122647 Eh/α |
          | HOMO-LUMO GAP               7.405477013956 eV   |
           -------------------------------------------------

------------------------------------------------------------------------
 * finished run on 2022/11/17 at 06:54:58.458     
------------------------------------------------------------------------
 total:
 * wall-time:     0 d,  0 h,  0 min,  9.283 sec
 *  cpu-time:     0 d,  0 h,  0 min, 13.966 sec
 * ratio c/w:     1.504 speedup
 SCF:
 * wall-time:     0 d,  0 h,  0 min,  8.682 sec
 *  cpu-time:     0 d,  0 h,  0 min, 12.894 sec
 * ratio c/w:     1.485 speedup

