531
 energy: -901.191389501469 gnorm: 0.028877209053 xtb: 6.5.1 (579679a)
o            0.00632111991329       -2.49891067435843       -0.08388206101762
h           -0.15799999054147       -2.56486458853953        0.86089398232866
h           -0.42262169419043       -3.29194774608278       -0.48351693774066
o            1.50949630525320       -3.49976220670250        2.32198766297277
h            1.47232376810202       -3.56730389013593        3.28948915641072
h            1.81053584142369       -2.60228513646745        2.13619900040955
o            3.59074421986144        1.45582498733279        1.29309760612999
h            3.44957607295836        1.77900269834934        0.38688871180571
h            4.53044509497882        1.59718934271771        1.49362262372592
o            0.28170858946395       -1.68591122948618       -3.21598265453078
h           -0.45812861529598       -1.23557891286653       -2.78725973600642
h            0.29232818477860       -2.62543430751983       -2.94549991532503
o           -5.61591677047147       -0.43591084785762        2.85282940112278
h           -5.81265253301890        0.06082086195696        3.66109188593485
h           -6.32529303065799       -0.27948664876985        2.20964379649548
o            2.90239431462463       -2.03294173338987       -2.77705279975322
h            3.23001031422899       -2.45640439730194       -3.59677477870196
h            1.99636173008337       -1.74624945468794       -2.98572748259289
o           -2.58519373935323       -2.41956312211981        1.20862144716751
h           -1.91795337675769       -2.54051175709881        1.89775611543197
h           -3.44567450782046       -2.72540687494462        1.56693692322412
o            4.17828729915077       -2.91880703110185        1.37719203792810
h            3.49426513141225       -3.11995364154010        0.68900434027630
h            3.78819652444232       -2.15448778471312        1.83863590461653
o           -2.41022118988688       -2.35334813256351       -1.47405758654127
h           -2.36906846620497       -2.34549725479149       -0.50139470548216
h           -2.28329048256326       -1.42983822024406       -1.74913555422054
o            0.18057460474678        3.74006018650802        3.20074498504426
h           -0.74851941805435        3.64083468191398        2.94402617866197
h            0.29447973247910        3.11810173911180        3.93657731947595
o           -1.54182950705368        0.09510633677623       -1.98296325772638
h           -1.94750120411665        0.62306302829384       -1.26509751442801
h           -1.25077027035743        0.80375983222970       -2.58012235022380
o            4.28045076897251        4.28621543943775        1.88684179754416
h            4.95220451974894        3.59538064253129        2.04768825632139
h            4.40262998813707        4.58446528026651        0.96601689517557
o            1.75783104701333        3.58671729483465        1.06296038258161
h            1.17788017221970        3.56973561051019        1.84485596343980
h            2.63140968586534        3.87935836218460        1.36393268665833
o           -2.37294906604452        3.06972289710031        2.39767732445042
h           -3.31275335725244        2.82169993891099        2.38878637837517
h           -2.25167845399589        3.67134883238305        1.63231513665853
o           -0.54992842947902        4.13711122017074       -5.01050610113981
h           -1.37771448107959        4.62007877776289       -4.84532451206499
h           -0.71957525313999        3.68933885641409       -5.86378446387550
o           -2.40535111513843        5.95922130732086       -2.25894945832132
h           -3.13785489037889        6.51036250978753       -1.91385362793850
h           -2.54965970185005        5.91595639153502       -3.21572628585455
o           -3.52517861634422        3.49745500271659       -2.24152649013771
h           -3.08560346992672        2.93640794686878       -2.91098719952707
h           -2.95867939050215        4.28474844907344       -2.13004898618020
o           -2.31000481918446       -1.56612755079916       -4.62301303579042
h           -2.06434970227580       -2.46780876734383       -4.36381429813822
h           -2.93380497331038       -1.23049498763851       -3.94219943945438
o            2.95731017332920        1.87395712073953        3.88004581122077
h            3.02727507903826        2.00505968717665        2.91986231720391
h            3.08881550892852        2.72682722371317        4.31920030637741
o            5.70588825072454       -0.51339189046924        1.05656521867476
h            5.43007432441356       -0.37143447083951        1.98150489526206
h            4.91176876710074       -0.75074204744825        0.54644776230228
o           -5.52155702062634        5.03806554818320       -3.17265483355066
h           -4.82485411156409        4.45484390749262       -2.79056037550001
h           -5.55836776891082        4.82765580630441       -4.10876080080150
o           -0.62580647823955        0.53370186258475       -4.82022041299427
h           -1.09777082465200       -0.32090896972692       -4.82635109342518
h           -1.30611297392248        1.18003432552000       -4.54617443301925
o            5.49506887348383        2.61256788781370        4.89295342264592
h            5.59997005515099        3.58367386471742        4.85333718962166
h            6.35234837544784        2.27549401738661        4.60665743640788
o            8.12000774454977       -0.65529920540349        0.02033798911296
h            7.26038086460320       -0.67275651738389        0.48533596987194
h            8.02288581626036       -1.27706286291762       -0.74132278612245
o           -5.73265569964107        2.09196990731344       -3.25366986093393
h           -6.19918480695765        1.30858859909273       -2.88102922940673
h           -5.19712300262643        2.42524136249348       -2.52286075243659
o            3.70676390939716       -0.52170666759768       -0.77009069775299
h            3.90435493226561        0.36947818582084       -1.09284091370955
h            3.56822502845080       -1.08242796477550       -1.55683483586168
o           -3.43762200126740       -1.71221252444604        3.94976471095258
h           -3.53697191055000       -1.29964008492304        4.82393735074916
h           -4.14586287785888       -1.33293892013369        3.40539890205706
o           -2.97929905778956        1.63760366426779       -4.17855961252534
h           -3.22167473000238        1.44608869153612       -5.09966978766758
h           -3.38284242324955        0.91709900851431       -3.65316263177004
o           -7.85573708856765        3.22014825364402       -4.41585351900984
h           -7.05666393760335        2.85216715018456       -3.96738564391751
h           -7.67023709547769        3.18521581518485       -5.35385040308532
o            4.35622510184244        0.74282004768334        6.47606687846952
h            4.66620475928336        1.48005466578485        5.91134811836224
h            5.10814632518130        0.13546338123225        6.48073123793683
o            3.70006542431877       -3.18541331016687       -5.06603634758813
h            3.76611796529059       -2.47393484027534       -5.72872348250591
h            4.63634560055350       -3.37043539880113       -4.82855833132048
o           -8.08941071688810       -4.62887957414619       -0.14766430269997
h           -7.66179119666142       -5.50882807570696        0.00685833236369
h           -8.20484796947824       -4.57874176779765       -1.11397687094833
o           -0.91041053193491        2.56942718761601       -2.83100800084750
h           -0.65780105157126        3.09488357966565       -2.06504432061117
h           -0.63953701656569        3.07350540424929       -3.61561896145366
o            1.01591893174605       -4.19950441438225       -2.79791727871729
h            0.30831166079583       -4.68263106195949       -2.34834788522720
h            1.02048683652206       -4.47807072183790       -3.74722381774359
o            1.08606553653812        0.03788641788523        4.08300208829083
h            0.46628006904015        0.50849923982292        3.48934378736888
h            1.77588226223895        0.70060908189959        4.27621030156583
o            3.55012911642923       -5.04216897780243       -2.48985499859830
h            3.87634197606455       -4.98036752623629       -3.38939725884166
h            2.63709362743817       -4.66655415595063       -2.51084286365148
o            3.10566765186505       -2.13870876957674        4.30950944817663
h            3.74429931301510       -1.44523311351562        4.04574799444740
h            2.71511526089980       -1.84372897394420        5.14752453712772
o           -4.66040021652180       -3.67177894524301       -1.07887838760471
h           -3.90646547476965       -3.13550684949710       -1.39187423366616
h           -5.44857753769693       -3.19223663383372       -1.39952915855582
o            6.04550332451621        1.16373808373195       -1.09038890593676
h            6.12849136901630        2.12004986730799       -0.93968035801943
h            5.97960091683001        0.74581428210560       -0.21373677466999
o            1.13410500708110        6.19235300689160       -4.36532646319789
h            2.07071014308539        5.95950624079454       -4.40639553398749
h            0.62399998220686        5.41125731655951       -4.65175387892392
o            2.42602571722070       -3.40191884187992       -0.46889704059734
h            2.66011019740264       -3.02846640112756       -1.33967652850885
h            1.54641874502791       -3.01435168313722       -0.26005886807259
o            0.25859811020825        0.07794258406867        7.91243434940777
h           -0.36217445009841        0.31892328391134        8.60061560426035
h           -0.29213490949641       -0.12705940931161        7.11954581556959
o            2.46418339058011       -1.27931494960868        6.80105659401804
h            1.69631087972118       -0.93379874536498        7.27433540350829
h            3.12229320792297       -0.56663624692921        6.77273407664545
o           -0.97260029356485       -0.53308683404181        5.63516488478609
h           -1.66707188833395        0.00671326677698        5.19239354386489
h           -0.14349005108741       -0.30884423594621        5.16165466581680
o            1.87399705253601        3.57124361307039       -2.96151034373993
h            1.19084842751645        3.80887019912406       -2.31417734019757
h            2.43040498981432        4.34721712197794       -3.11385367860588
o            0.19552999345935        6.70497944303169       -1.92937238969870
h            0.55856391137790        6.63093424530120       -2.84171264915417
h           -0.77269594241138        6.65766257002188       -2.02228628857823
o           -3.13983210809543       -5.16019498625210        0.43773254228845
h           -2.55003762291474       -4.66631521777323        1.02462678953804
h           -3.70874966171285       -4.52352927482015       -0.03263842907204
o           -4.92819590967635       -0.47768916188123       -0.50977360210464
h           -5.62535085769646       -1.11134245769282       -0.28292778805097
h           -5.33825718793203        0.40574104205656       -0.58947524681003
o           10.64834063247799        2.92635868030121       -2.89248277954398
h           10.10606311638934        2.67968252798701       -3.66614468186575
h           10.91764108499315        2.09883430637634       -2.46975965586305
o           -1.39664022832362        2.92008137028340       -7.25495625000670
h           -2.16566141767607        2.34797214976228       -7.17828136752017
h           -0.62933559411201        2.33038188439424       -7.38857382630957
o           -8.09586952068881        2.80504003955689       -0.48159767831902
h           -8.11897259824549        3.50524791619339       -1.16737795669417
h           -8.74257839078947        2.11332155453221       -0.72913136765347
o           -0.36333601889052        2.33359824969544        5.47407436883148
h           -0.84935575379918        3.18688629802989        5.51710543033905
h            0.42855097834013        2.39172844430237        6.02876037916938
o           -8.66623742197211       -1.55576966256023       -4.09097722235108
h           -8.81997167060899       -1.71273935929689       -3.14239084765827
h           -9.10336600591648       -0.71358717549552       -4.26603537700957
o           -2.72781589942107        0.96398151526475        4.25018691858017
h           -2.30081079003779        1.81279536511412        4.11121926507337
h           -2.90456349322337        0.61193488902645        3.36585379422616
o            6.83730450465523       -3.40184949918613        4.83825492022100
h            7.42857766379855       -3.99128433320036        5.30424649398773
h            5.91852450879644       -3.79703535632244        4.90429391919396
o            9.91983031506704        1.01425568920045        1.05557803926675
h            9.16403687588766        0.47873328488471        0.74624598046569
h           10.55726752362759        0.97801511996254        0.31834685996461
o           -7.28831744651112        2.50306171977331        3.52537736432579
h           -7.06579258565676        2.06036844714524        4.35093684123272
h           -8.06185724534446        2.05195308612556        3.15428608885440
o           -1.60692301411450       -0.81459074282480       -7.41972154362010
h           -1.13434118215916       -1.42035013122397       -6.80819151845621
h           -0.92852324785446       -0.46179283115604       -7.99771739639553
o           -0.91162802142190       -4.58366655974065        1.95014547107147
h           -0.01479556952710       -4.22987496346461        2.10471440183104
h           -1.40017929399555       -4.47789141925454        2.78986804106437
o            6.39465806532264        6.15433013501940        0.37083546699486
h            5.61124922720471        6.68294388187631        0.63832418557810
h            6.90699882098874        6.03703845480118        1.18706810416751
o           -4.55669309734316        4.68788306857182        0.10669577620117
h           -5.32663973310988        5.27206727187309       -0.03614928294634
h           -4.81944847776567        3.80789831571457       -0.22134034686482
o           -7.46136514135668        0.27324984244884        0.96044326859298
h           -7.53884762906765        0.33471702314590       -0.00007985919284
h           -8.24150932757684        0.70033520732472        1.34423500818576
o           -6.80414119743176        6.13583671873506        0.00587315725512
h           -7.12864649272537        5.87045430385643        0.88242785683081
h           -7.45189714623511        5.83358136757737       -0.64235624590405
o           -5.50226312471625        2.18222939903913       -0.39303328243566
h           -5.31836376227779        2.15051657018143        0.57173473135638
h           -6.46513371908371        2.34705804764690       -0.46114172861638
o            8.45546269782684        1.22211992271519       -2.21974664385852
h            7.63251108067789        1.04605492585019       -1.71882419843267
h            9.19439281857143        1.10592568819557       -1.61806354298094
o            6.09843267040546        2.30071260004688        1.80504947803276
h            6.75671377433202        2.14717346269157        2.50042083771851
h            6.54917998788624        2.75166547550874        1.06435091705259
o            5.71484732169331       -0.99646982905061       -2.78572875694850
h            5.43165705506698       -1.64758330294204       -2.11978838483200
h            5.98575933625882       -0.20139095331576       -2.30561373819189
o            3.37242787561612        6.03829946088452        3.64820054163071
h            3.04020274473897        5.49864049315245        4.38091736655110
h            3.69243742992625        5.38882451624062        2.98086658994378
o           -3.86128376706153       -0.56842839386303        6.41609773283326
h           -3.21132830336242        0.06273749767936        6.78632370258458
h           -3.88174592836322       -1.36519386734158        6.95741088521161
o           -2.42502352371323        1.92792435603268       -0.25498420614351
h           -3.03615064451490        2.43753887415257       -0.80556644116182
h           -2.92084138721299        1.47759346011308        0.44302996749709
o            6.19359375087638       -3.33643596665542       -4.25111552859415
h            6.19691944206788       -2.54980221723706       -3.68204108659108
h            6.47684234629785       -4.08618183649599       -3.69411824137063
o           -4.93139018128024       -3.27110703871630        2.11937689567023
h           -5.54222309220899       -2.93170162440536        1.43331158082181
h           -4.97005929749235       -4.24359612169181        2.08269319717401
o            4.41229601494012       -0.96425970943858       -6.52470256805732
h            4.23730949987491       -0.44290368970853       -5.70044391432947
h            5.36774692049642       -1.09139424284365       -6.57145556291987
o            1.82963040125217       -1.10189308706955       -7.47915580060565
h            2.77912359796097       -1.08749458830537       -7.30575709669356
h            1.51610763943979       -0.17861971572828       -7.40501082898488
o           -6.18587264239304       -0.61062692994773       -4.87900111444079
h           -5.79355352449128       -1.18227659961189       -5.54611043704816
h           -7.04186017477681       -1.01056625984285       -4.62698743252185
o            8.83079271880512       -1.00359390628942       -3.78406409832551
h            8.66610484528402       -0.10620915634604       -3.43854305458212
h            8.30894030162108       -1.59003890608091       -3.20720522924470
o            5.26780134776908       -3.15459856712536       -1.21982144782858
h            4.74640068184301       -3.87182917998320       -1.61589788188187
h            5.06497943838632       -3.12928418057445       -0.27575765661581
o          -10.53964150496328       -3.39789833705279        0.01482229202479
h           -9.79760777850694       -4.01717787359783        0.11927850713355
h          -10.78915235911401       -3.10116898768285        0.89694239618423
o           -2.26204770623393        1.45700039092385        7.26871097643046
h           -2.83618321216705        2.22250883370233        7.29108195235508
h           -1.59249879255252        1.64800970380272        6.57766937144324
o            3.92732432823442        0.28690781228147       -4.26367675572846
h            4.53985003160611       -0.25425056581122       -3.71930746033354
h            4.28937558444458        1.19630860121017       -4.22619277900605
o            2.03044532112116        6.51731749104263        0.06364767129478
h            1.41414551879985        6.85812957142298       -0.60039761229680
h            1.52081293770347        6.41316715270536        0.89765960381784
o            7.19781230150798       -1.43698855078030       -5.92769009194648
h            6.85602250211854       -2.27740918260862       -5.58415825341808
h            8.00820272862269       -1.29792014348303       -5.40602032974535
o            2.49885399456361       -0.90052016765223        1.91923440273890
h            2.93875250725098       -0.07999968717761        1.62234866888332
h            2.14554394214260       -0.68622757703393        2.79932972308647
o           -6.80007994930855       -2.39013506735014        0.32251925407784
h           -7.19324468713172       -3.27906600887766        0.14202698862297
h           -7.28053624993325       -2.04897447260232        1.09926106231359
o           -9.28887360420584        1.06298014547979       -3.60399054003232
h           -8.92722717385802        1.91062269743781       -3.91919558728838
h           -9.81991088443742        1.23339516026914       -2.81438195559011
o            2.38102997789521        2.87465832959742       -5.52376727122117
h            2.11629187395674        2.86841191457716       -4.58065842222012
h            2.43459309622556        3.79971606477326       -5.76899033527024
o            4.81276061538639       -0.18125165698378        3.58513909238132
h            5.49876874374064       -0.29401398902214        4.27335619753047
h            4.33172094641553        0.64099145823064        3.78942117262855
o           11.29703730499408        0.70480098721052       -1.24113424465097
h           11.15451721601658       -0.22418639670079       -1.57483907319096
h           12.24704516965520        0.81012369673912       -1.18447639130754
o            4.26489997271524        7.49231196768515        1.26378256404995
h            3.46288239432387        7.27998983788415        0.75262409937348
h            4.04021062546114        7.33407000616648        2.18520188996351
o            7.97976978006048        2.10143596583480        3.73475260120064
h            8.66851396306077        2.64355517033898        3.34118503761447
h            8.41711613588493        1.36831660385145        4.20897898280342
o            1.56118867395748       -7.11576418272032       -2.03822413269946
h            1.48895283995936       -6.82194808107992       -1.11548739830826
h            2.35869307906735       -6.69416953303476       -2.37797903657790
o            6.82546220835343       -3.25190247569779        2.11444006392861
h            5.91972734868493       -2.99595845334368        1.87826816843997
h            6.84205377021444       -3.32288812471238        3.08398352447689
o            1.27990695975418       -6.25715492537944        3.14044099493887
h            1.03487648798727       -5.56019522224123        3.79132651205160
h            1.32975503712937       -7.07933077180061        3.62593028999705
o           -8.02204322623832       -2.31120431397340        2.66978722730488
h           -7.79407030508895       -3.24153084926016        2.84240682219010
h           -7.79525405517943       -1.80991480498158        3.47171794930428
o           -4.06097105123494       -3.28613733982181        6.88113964898792
h           -4.60571790669515       -3.31147851587060        6.06663292185562
h           -4.36704052853879       -4.00240030926923        7.43632521427968
o           -5.01727960191129       -6.01538295861057        2.05153795316434
h           -4.35861638872054       -5.87926683603876        1.32732713875446
h           -4.48099209086650       -6.49240437985385        2.72841364436584
o           -4.17870322571217       -1.89664091513520       -6.46499473829672
h           -3.40556041844191       -1.69923406114998       -5.87711577033826
h           -3.80083692196966       -2.10005010276349       -7.32094885028365
o            4.75491326945315       -6.13795467303852       -0.03081583774088
h            4.37373696441758       -5.99844469638200        0.85376319509053
h            4.12926504439912       -5.80156680764788       -0.68098711722021
o           -7.15065461388332        0.22471609625140       -2.05599039485120
h           -7.93940971870486        0.40609769662370       -2.59764665519823
h           -6.88539997429279       -0.69108134538348       -2.26636789063295
o           -0.83729042591862       -4.86059413234861       -0.95122130134865
h           -0.16638731346330       -5.32764848371621       -0.42040066759651
h           -1.70402672040520       -5.16001860686851       -0.62400587220640
o            9.35193248195508       -2.48054014126280        1.50650780443055
h            9.02050816850395       -1.73902210125875        0.94965075279438
h            8.53515810113309       -2.86542340425420        1.86549343632484
o            1.36185117295127       -5.79955391553433        0.34159276260821
h            1.31610967289535       -5.87945647722132        1.30371042674548
h            1.84276715193343       -4.97426592510226        0.14491770975490
o           -3.07057820342060       -6.97035706751086        3.52082870994778
h           -2.47491024108500       -7.19661555431930        2.78761212537349
h           -2.82888705224400       -6.07367199950274        3.80347764462464
o           -3.35918620894444        0.10359599078852        1.54889458299832
h           -2.90277949408874       -0.75170318715910        1.62316559800754
h           -4.03203840771921       -0.09855581735602        0.86437987660518
o           -2.59158479626018       -4.28676737288642        3.99626752283790
h           -3.12888971091067       -3.49316123421475        3.82208108109830
h           -2.07894164312201       -4.03766191239777        4.78830535085524
o            7.83128873233598       -2.53713918311152       -1.78063614829787
h            6.98089215253330       -2.95556914489120       -1.55518580761447
h            8.53889806568612       -3.15187261017854       -1.48980963158006
o            5.86618596315250        5.26106651289371        4.66367953271755
h            5.10463229790746        5.77871097156810        4.36214783359292
h            6.52840577851350        5.31697664580634        3.95662281401638
o           -7.41303166054059       -1.16485156032869        5.09777825824306
h           -6.91322449121138       -0.37721129530353        5.33994087777605
h           -6.78974544436756       -1.91311361070702        5.17134389601765
o           -1.91752973529739        4.91426670196892        0.57471593457975
h           -1.24194469737587        4.62435992946556       -0.06941824675962
h           -2.77069419094296        4.98370912052593        0.11934239972753
o          -10.66395911372904       -2.04848309734752        2.51190917215235
h           -9.69031230996134       -2.16529318971068        2.44672808259963
h          -10.76411209733718       -1.58710943625252        3.36643822477173
o           -7.34707945255964       -4.96642505702992        3.08803682390118
h           -6.56450013306485       -5.38750691876310        2.68726068088410
h           -8.09764328542451       -5.48601071742408        2.79795208981407
o           -9.89871851452609        0.85640294584542       -0.95739383777604
h          -10.59942331181674        0.74342053452755       -0.30193549718725
h           -9.55380681382612       -0.05542786185752       -1.10256110700776
o            6.70493722453560       -5.36939819764306       -2.56790870715706
h            6.11756297223069       -6.12226101369465       -2.49637161749379
h            7.02097033161505       -5.19901670825043       -1.66197708590647
o            0.84754380726715       -4.26724768189712        4.87682854074214
h            1.48805171414287       -4.27733351936144        5.62598527033773
h            0.03028350669042       -3.93107956928578        5.26751800679495
o           -2.11443475882917       -4.06535832492819       -3.53180426862942
h           -2.09679827966545       -3.65476130642222       -2.64896111033732
h           -1.68913343408698       -4.93081882543299       -3.44455088162493
o           -4.70415850006175        7.22249803641804       -1.71315040995914
h           -5.13321831555531        6.60472875363243       -2.32723926748556
h           -5.28074853976756        7.25760341516086       -0.94413788450554
o            4.81289590247358        2.75295989808836       -3.61518241179376
h            4.50425072510898        2.53964086737963       -2.71703976852110
h            5.77380986572301        2.90211007715074       -3.55967736174368
o            0.08663357826250       -2.31016473356945       -5.90691545347399
h            0.80016570856304       -1.92845157698392       -6.46680513462899
h            0.20959354685460       -1.96596831340319       -5.00373179976872
o           -1.26485058525086       -7.16479247657142        1.34446684036413
h           -0.43222143929986       -7.63559238269205        1.35397409728244
h           -1.05948345790432       -6.22158131787984        1.53806115860296
o            9.08737496390023        2.26345245950342       -5.05980762386586
h            9.55508380340761        1.85588944551604       -5.78722166837832
h            8.22191631089490        1.78504912538823       -4.97762698719017
o            9.78123384242601       -3.96377973515209       -0.69365114004511
h            9.79467484757859       -3.50136858275322        0.17279653376840
h            9.31362122940967       -4.79004880539348       -0.53317055233407
o           -2.59093553552074       -7.40282500398771       -1.24552986534319
h           -1.91562552287364       -7.10756668308099       -1.87475808356546
h           -2.21470127272629       -7.35585149374594       -0.35534740183204
o           -7.22777194792836        5.13271435540172        2.57084670348450
h           -7.30144268249365        4.23192097427465        2.92121214637850
h           -6.30390049984238        5.38103913616288        2.73129310059874
o           -9.02952063446773       -1.64759787794084       -1.29806227756982
h           -9.68901214248205       -2.26513106374753       -0.91264265132780
h           -8.19352379012908       -1.82416112365985       -0.83551666718326
o           -6.80048247167096       -6.88847478680731        0.15409844100318
h           -6.19824634754499       -6.82227660424944        0.90974299979649
h           -6.21779951543085       -6.83459251030682       -0.63266838370303
o           -9.55062965872054        1.45915152542426        2.39409209168323
h           -9.69479942264478        2.39910768901795        2.12520398552972
h          -10.28095558136301        0.97243317998056        1.96495160629735
o            3.76251480722483        5.18683417218075       -4.09448857262536
h            4.16232816613140        4.28900664057864       -4.10202078592630
h            4.42289782395677        5.74348867083583       -3.66952530235237
o            7.78313768440343        5.46154788539370        2.64888518314441
h            8.28518452082506        4.69550941736450        2.29580484480173