      -----------------------------------------------------------      
     |                   =====================                   |     
     |                           x T B                           |     
     |                   =====================                   |     
     |                         S. Grimme                         |     
     |          Mulliken Center for Theoretical Chemistry        |     
     |                    University of Bonn                     |     
      -----------------------------------------------------------      

   * xtb version 6.5.1 (579679a) compiled by 'ehlert@majestix' on 2022-07-11

   xtb is free software: you can redistribute it and/or modify it under
   the terms of the GNU Lesser General Public License as published by
   the Free Software Foundation, either version 3 of the License, or
   (at your option) any later version.
   
   xtb is distributed in the hope that it will be useful,
   but WITHOUT ANY WARRANTY; without even the implied warranty of
   MERCHANTABILITY or FITNESS FOR A PARTICULAR PURPOSE.  See the
   GNU Lesser General Public License for more details.
   
   Cite this work as:
   * C. Bannwarth, E. Caldeweyher, S. Ehlert, A. Hansen, P. Pracht,
     J. Seibert, S. Spicher, S. Grimme, WIREs Comput. Mol. Sci., 2020, 11,
     e01493. DOI: 10.1002/wcms.1493
   
   for GFN2-xTB:
   * C. Bannwarth, S. Ehlert and S. Grimme., J. Chem. Theory Comput., 2019,
     15, 1652-1671. DOI: 10.1021/acs.jctc.8b01176
   for GFN1-xTB:
   * S. Grimme, C. Bannwarth, P. Shushkov, J. Chem. Theory Comput., 2017,
     13, 1989-2009. DOI: 10.1021/acs.jctc.7b00118
   for GFN0-xTB:
   * P. Pracht, E. Caldeweyher, S. Ehlert, S. Grimme, ChemRxiv, 2019, preprint.
     DOI: 10.26434/chemrxiv.8326202.v1
   for GFN-FF:
   * S. Spicher and S. Grimme, Angew. Chem. Int. Ed., 2020, 59, 15665-15673.
     DOI: 10.1002/anie.202004239
   
   for ALPB and GBSA implicit solvation:
   * S. Ehlert, M. Stahn, S. Spicher, S. Grimme, J. Chem. Theory Comput.,
     2021, 17, 4250-4261. DOI: 10.1021/acs.jctc.1c00471
   
   for DFT-D4:
   * E. Caldeweyher, C. Bannwarth and S. Grimme, J. Chem. Phys., 2017,
     147, 034112. DOI: 10.1063/1.4993215
   * E. Caldeweyher, S. Ehlert, A. Hansen, H. Neugebauer, S. Spicher,
     C. Bannwarth and S. Grimme, J. Chem. Phys., 2019, 150, 154122.
     DOI: 10.1063/1.5090222
   * E. Caldeweyher, J.-M. Mewes, S. Ehlert and S. Grimme, Phys. Chem. Chem. Phys.
     2020, 22, 8499-8512. DOI: 10.1039/D0CP00502A
   
   for sTDA-xTB:
   * S. Grimme and C. Bannwarth, J. Chem. Phys., 2016, 145, 054103.
     DOI: 10.1063/1.4959605
   
   in the mass-spec context:
   * V. Asgeirsson, C. Bauer and S. Grimme, Chem. Sci., 2017, 8, 4879.
     DOI: 10.1039/c7sc00601b
   * J. Koopman and S. Grimme, ACS Omega 2019, 4, 12, 15120-15133.
     DOI: 10.1021/acsomega.9b02011
   
   for metadynamics refer to:
   * S. Grimme, J. Chem. Theory Comput., 2019, 155, 2847-2862
     DOI: 10.1021/acs.jctc.9b00143
   
   for SPH calculations refer to:
   * S. Spicher and S. Grimme, J. Chem. Theory Comput., 2021, 17, 1701-1714
     DOI: 10.1021/acs.jctc.0c01306
   
   with help from (in alphabetical order)
   P. Atkinson, C. Bannwarth, F. Bohle, G. Brandenburg, E. Caldeweyher
   M. Checinski, S. Dohm, S. Ehlert, S. Ehrlich, I. Gerasimov, C. Hölzer
   A. Katbashev, J. Koopman, C. Lavigne, S. Lehtola, F. März, M. Müller,
   F. Musil, H. Neugebauer, J. Pisarek, C. Plett, P. Pracht, F. Pultar,
   J. Seibert, P. Shushkov, S. Spicher, M. Stahn, M. Steiner, T. Strunk,
   J. Stückrath, T. Rose, and J. Unsleber
   
 * started run on 2022/11/17 at 06:48:47.984     

           -------------------------------------------------
          |                Calculation Setup                |
           -------------------------------------------------

          program call               : xtb solvent_cluster.coord --gfn2 --input xcontrol --opt 1
          hostname                   : cn0363
          coordinate file            : solvent_cluster.coord
          omp threads                :                     2

   ID    Z sym.   atoms
    1    8 o      1, 4, 7, 10, 13, 16, 19, 22, 25, 28, 31, 34, 37, 40, 43,
                  46, 49, 52, 55, 58, 61, 64, 67, 70, 73, 76, 79, 82, 85, 88,
                  91, 94, 97, 100, 103, 106, 109, 112, 115, 118, 121, 124,
                  127, 130, 133, 136, 139, 142, 145, 148, 151, 154, 157, 160,
                  163, 166, 169, 172, 175, 178, 181, 184, 187, 190, 193, 196,
                  199, 202, 205, 208, 211, 214, 217, 220, 223, 226, 229, 232,
                  235, 238, 241, 244, 247, 250, 253, 256, 259, 262, 265, 268,
                  271, 274, 277, 280, 283, 286, 289, 292, 295, 298, 301, 304,
                  307, 310, 313, 316, 319, 322, 325, 328, 331, 334, 337, 340,
                  343, 346, 349, 352, 355, 358, 361, 364, 367, 370, 373, 376,
                  379, 382, 385, 388, 391, 394, 397, 400, 403, 406, 409, 412,
                  415, 418, 421, 424, 427, 430, 433, 436, 439, 442, 445, 448,
                  451, 454, 457, 460, 463, 466, 469, 472, 475, 478, 481, 484,
                  487, 490, 493, 496, 499, 502, 505, 508, 511, 514, 517, 520,
                  523, 526, 529
    2    1 h      2, 3, 5, 6, 8, 9, 11, 12, 14, 15, 17, 18, 20, 21, 23, 24,
                  26, 27, 29, 30, 32, 33, 35, 36, 38, 39, 41, 42, 44, 45, 47,
                  48, 50, 51, 53, 54, 56, 57, 59, 60, 62, 63, 65, 66, 68, 69,
                  71, 72, 74, 75, 77, 78, 80, 81, 83, 84, 86, 87, 89, 90, 92,
                  93, 95, 96, 98, 99, 101, 102, 104, 105, 107, 108, 110, 111,
                  113, 114, 116, 117, 119, 120, 122, 123, 125, 126, 128, 129,
                  131, 132, 134, 135, 137, 138, 140, 141, 143, 144, 146, 147,
                  149, 150, 152, 153, 155, 156, 158, 159, 161, 162, 164, 165,
                  167, 168, 170, 171, 173, 174, 176, 177, 179, 180, 182, 183,
                  185, 186, 188, 189, 191, 192, 194, 195, 197, 198, 200, 201,
                  203, 204, 206, 207, 209, 210, 212, 213, 215, 216, 218, 219,
                  221, 222, 224, 225, 227, 228, 230, 231, 233, 234, 236, 237,
                  239, 240, 242, 243, 245, 246, 248, 249, 251, 252, 254, 255,
                  257, 258, 260, 261, 263, 264, 266, 267, 269, 270, 272, 273,
                  275, 276, 278, 279, 281, 282, 284, 285, 287, 288, 290, 291,
                  293, 294, 296, 297, 299, 300, 302, 303, 305, 306, 308, 309,
                  311, 312, 314, 315, 317, 318, 320, 321, 323, 324, 326, 327,
                  329, 330, 332, 333, 335, 336, 338, 339, 341, 342, 344, 345,
                  347, 348, 350, 351, 353, 354, 356, 357, 359, 360, 362, 363,
                  365, 366, 368, 369, 371, 372, 374, 375, 377, 378, 380, 381,
                  383, 384, 386, 387, 389, 390, 392, 393, 395, 396, 398, 399,
                  401, 402, 404, 405, 407, 408, 410, 411, 413, 414, 416, 417,
                  419, 420, 422, 423, 425, 426, 428, 429, 431, 432, 434, 435,
                  437, 438, 440, 441, 443, 444, 446, 447, 449, 450, 452, 453,
                  455, 456, 458, 459, 461, 462, 464, 465, 467, 468, 470, 471,
                  473, 474, 476, 477, 479, 480, 482, 483, 485, 486, 488, 489,
                  491, 492, 494, 495, 497, 498, 500, 501, 503, 504, 506, 507,
                  509, 510, 512, 513, 515, 516, 518, 519, 521, 522, 524, 525,
                  527, 528, 530, 531

molecular fragmentation (1/2 indicates fragments):
111222222222222222222222222222222222222222222222222222222222222222222222
222222222222222222222222222222222222222222222222222222222222222222222222
222222222222222222222222222222222222222222222222222222222222222222222222
222222222222222222222222222222222222222222222222222222222222222222222222
222222222222222222222222222222222222222222222222222222222222222222222222
222222222222222222222222222222222222222222222222222222222222222222222222
222222222222222222222222222222222222222222222222222222222222222222222222
222222222222222222222222222
# atoms in fragment 1/2:     3   528
 fragment masses (1/2) :       18.02     3170.69
CMA distance (Bohr)    :   4.320
constraining FC (au)   :  0.0500

           -------------------------------------------------
          |                 G F N 2 - x T B                 |
           -------------------------------------------------

        Reference                      10.1021/acs.jctc.8b01176
      * Hamiltonian:
        H0-scaling (s, p, d)           1.850000    2.230000    2.230000
        zeta-weighting                 0.500000
      * Dispersion:
        s8                             2.700000
        a1                             0.520000
        a2                             5.000000
        s9                             5.000000
      * Repulsion:
        kExp                           1.500000    1.000000
        rExp                           1.000000
      * Coulomb:
        alpha                          2.000000
        third order                    shell-resolved
        anisotropic                    true
        a3                             3.000000
        a5                             4.000000
        cn-shift                       1.200000
        cn-exp                         4.000000
        max-rad                        5.000000


          ...................................................
          :                      SETUP                      :
          :.................................................:
          :  # basis functions                1062          :
          :  # atomic orbitals                1062          :
          :  # shells                          708          :
          :  # electrons                      1416          :
          :  max. iterations                   250          :
          :  Hamiltonian                  GFN2-xTB          :
          :  restarted?                      false          :
          :  GBSA solvation                  false          :
          :  PC potential                    false          :
          :  electronic temp.          300.0000000     K    :
          :  accuracy                    1.0000000          :
          :  -> integral cutoff          0.2500000E+02      :
          :  -> integral neglect         0.1000000E-07      :
          :  -> SCF convergence          0.1000000E-05 Eh   :
          :  -> wf. convergence          0.1000000E-03 e    :
          :  Broyden damping             0.4000000          :
          ...................................................

 iter      E             dE          RMSdq      gap      omega  full diag
   1   -906.5490812 -0.906549E+03  0.407E+00    8.74       0.0  T
   2   -906.6079485 -0.588673E-01  0.241E+00    7.75       1.0  T
   3   -906.6306504 -0.227019E-01  0.217E-01    6.24       1.0  T
   4   -906.6347283 -0.407797E-02  0.471E-02    6.69       1.0  T
   5   -906.6348016 -0.732629E-04  0.316E-02    6.61       1.0  T
   6   -906.6348322 -0.305851E-04  0.467E-03    6.65       1.0  T
   7   -906.6348343 -0.211657E-05  0.751E-04    6.64       5.8  T
   8   -906.6348343 -0.199473E-07  0.390E-04    6.64      11.1  T
   9   -906.6348343 -0.105854E-07  0.758E-05    6.64      57.3  T

   *** convergence criteria satisfied after 9 iterations ***

         #    Occupation            Energy/Eh            Energy/eV
      -------------------------------------------------------------
         1        2.0000           -0.6949758             -18.9113
       ...           ...                  ...                  ...
       702        2.0000           -0.3565004              -9.7009
       703        2.0000           -0.3532798              -9.6132
       704        2.0000           -0.3459352              -9.4134
       705        2.0000           -0.3448609              -9.3841
       706        2.0000           -0.3372333              -9.1766
       707        2.0000           -0.3324770              -9.0472
       708        2.0000           -0.3204081              -8.7187 (HOMO)
       709                         -0.0762170              -2.0740 (LUMO)
       710                         -0.0680450              -1.8516
       711                         -0.0543830              -1.4798
       712                         -0.0479591              -1.3050
       713                         -0.0361627              -0.9840
       ...                                ...                  ...
      1062                          0.4817219              13.1083
      -------------------------------------------------------------
                  HL-Gap            0.2441911 Eh            6.6448 eV
             Fermi-level           -0.1983126 Eh           -5.3964 eV

 SCC (total)                   0 d,  0 h,  0 min,  7.921 sec
 SCC setup                      ...        0 min,  0.022 sec (  0.277%)
 Dispersion                     ...        0 min,  0.083 sec (  1.050%)
 classical contributions        ...        0 min,  0.024 sec (  0.309%)
 integral evaluation            ...        0 min,  0.436 sec (  5.503%)
 iterations                     ...        0 min,  2.582 sec ( 32.597%)
 molecular gradient             ...        0 min,  4.748 sec ( 59.943%)
 printout                       ...        0 min,  0.025 sec (  0.321%)

         :::::::::::::::::::::::::::::::::::::::::::::::::::::
         ::                     SUMMARY                     ::
         :::::::::::::::::::::::::::::::::::::::::::::::::::::
         :: total energy            -901.175539517040 Eh    ::
         :: gradient norm              0.100206182343 Eh/a0 ::
         :: HOMO-LUMO gap              6.644777743990 eV    ::
         ::.................................................::
         :: SCC energy              -906.634834340278 Eh    ::
         :: -> isotropic ES            5.097544603922 Eh    ::
         :: -> anisotropic ES         -1.103086373751 Eh    ::
         :: -> anisotropic XC         -0.093301428760 Eh    ::
         :: -> dispersion             -0.533755664244 Eh    ::
         :: repulsion energy           5.364291025446 Eh    ::
         :: add. restraining           0.000000000000 Eh    ::
         :: total charge               0.000000000000 e     ::
         :::::::::::::::::::::::::::::::::::::::::::::::::::::

      ----------------------------------------------------------- 
     |                       L-ANC optimizer                     |
      ----------------------------------------------------------- 
          low memory version by Sebastian Ehlert

          ...................................................
          :                      SETUP                      :
          :.................................................:
          :   energy convergence        0.1000000E-05 Eh    :
          :   grad. convergence         0.8000000E-03 Eh/a0 :
          :   optimization log               true           :
          :   writing optlog all                1     steps :
          :   Hessian reset                    20     steps :
          :   maximium step len.        1.0000000     a0    :
          :   LBFGS images                     20           :
          ...................................................
 * calculating model hessian...
Using Lindh-Hessian (1995)
 Shifting diagonal of input Hessian by   1.215925183147192E-002
 Lowest  eigenvalues of input Hessian
    0.010000    0.012159    0.012159   -0.000000   -0.000000   -0.000000
   -0.000000   -0.000000   -0.000000   -0.000000   -0.000000   -0.000000
   -0.000000   -0.000000   -0.000000   -0.000000   -0.000000   -0.000000
 Highest eigenvalues
    0.309403    0.316534    1.220363    1.221267    1.423187    1.445453
 

........................................................................
.............................. CYCLE    1 ..............................
........................................................................
   1   -906.6290529 -0.906629E+03  0.465E-02    6.65       0.0  T
   2   -906.6290737 -0.208440E-04  0.285E-02    6.67       1.0  T
   3   -906.6290823 -0.859018E-05  0.272E-03    6.69       1.6  T
   4   -906.6290828 -0.438721E-06  0.717E-04    6.68       6.0  T
   5   -906.6290828 -0.623675E-08  0.855E-05    6.68      50.7  T
     SCC iter.                  ...        0 min,  1.297 sec
     gradient                   ...        0 min,  4.756 sec
 * total energy  :  -901.1769597 Eh     change       -0.1420231E-02 Eh
   gradient norm :     0.0434930 Eh/a0  converged?    E=F G=F D=F
   step length   :     0.4090087 a0

........................................................................
.............................. CYCLE    2 ..............................
........................................................................
   1   -906.6345245 -0.906635E+03  0.261E-02    6.77       0.0  T
   2   -906.6345368 -0.123351E-04  0.155E-02    6.76       1.0  T
   3   -906.6345401 -0.331254E-05  0.253E-03    6.76       1.7  T
   4   -906.6345405 -0.379295E-06  0.614E-04    6.77       7.1  T
   5   -906.6345405 -0.449893E-08  0.711E-05    6.77      61.0  T
     SCC iter.                  ...        0 min,  1.274 sec
     gradient                   ...        0 min,  4.776 sec
 * total energy  :  -901.1782607 Eh     change       -0.1300979E-02 Eh
   gradient norm :     0.0164438 Eh/a0  converged?    E=F G=F D=F
   step length   :     0.2492772 a0

........................................................................
.............................. CYCLE    3 ..............................
........................................................................
   1   -906.6362125 -0.906636E+03  0.201E-02    6.75       0.0  T
   2   -906.6362164 -0.389606E-05  0.124E-02    6.74       1.0  T
   3   -906.6362182 -0.179716E-05  0.126E-03    6.73       3.4  T
   4   -906.6362183 -0.894970E-07  0.420E-04    6.73      10.3  T
   5   -906.6362183 -0.382749E-08  0.487E-05    6.73      89.1  T
     SCC iter.                  ...        0 min,  1.246 sec
     gradient                   ...        0 min,  4.772 sec
 * total energy  :  -901.1790607 Eh     change       -0.8000182E-03 Eh
   gradient norm :     0.0144846 Eh/a0  converged?    E=F G=F D=F
   step length   :     0.2716951 a0

........................................................................
.............................. CYCLE    4 ..............................
........................................................................
   1   -906.6217638 -0.906622E+03  0.530E-02    6.74       0.0  T
   2   -906.6217962 -0.323628E-04  0.316E-02    6.77       1.0  T
   3   -906.6218038 -0.762400E-05  0.388E-03    6.78       1.1  T
   4   -906.6218049 -0.106832E-05  0.101E-03    6.77       4.3  T
   5   -906.6218049 -0.165338E-07  0.143E-04    6.77      30.3  T
   6   -906.6218049 -0.980322E-09  0.456E-05    6.77      95.1  T
     SCC iter.                  ...        0 min,  1.489 sec
     gradient                   ...        0 min,  4.762 sec
 * total energy  :  -901.1776540 Eh     change        0.1406701E-02 Eh
   gradient norm :     0.0700737 Eh/a0  converged?    E=F G=F D=F
   step length   :     0.7354223 a0

........................................................................
.............................. CYCLE    5 ..............................
........................................................................
   1   -906.6401600 -0.906640E+03  0.418E-02    6.83       0.0  T
   2   -906.6401767 -0.167043E-04  0.247E-02    6.82       1.0  T
   3   -906.6401809 -0.419481E-05  0.283E-03    6.82       1.5  T
   4   -906.6401814 -0.565320E-06  0.797E-04    6.83       5.4  T
   5   -906.6401814 -0.890179E-08  0.109E-04    6.83      40.0  T
     SCC iter.                  ...        0 min,  1.250 sec
     gradient                   ...        0 min,  4.771 sec
 * total energy  :  -901.1801800 Eh     change       -0.2525961E-02 Eh
   gradient norm :     0.0100238 Eh/a0  converged?    E=F G=F D=F
   step length   :     0.4335801 a0

........................................................................
.............................. CYCLE    6 ..............................
........................................................................
   1   -906.6379970 -0.906638E+03  0.143E-02    6.83       0.0  T
   2   -906.6379981 -0.115358E-05  0.860E-03    6.83       1.0  T
   3   -906.6379984 -0.276793E-06  0.670E-04    6.82       6.5  T
   4   -906.6379984 -0.408724E-07  0.173E-04    6.83      25.0  T
     SCC iter.                  ...        0 min,  0.988 sec
     gradient                   ...        0 min,  4.783 sec
 * total energy  :  -901.1806852 Eh     change       -0.5051946E-03 Eh
   gradient norm :     0.0119365 Eh/a0  converged?    E=F G=F D=F
   step length   :     0.2175402 a0

........................................................................
.............................. CYCLE    7 ..............................
........................................................................
   1   -906.6305700 -0.906631E+03  0.370E-02    6.83       0.0  T
   2   -906.6305790 -0.895374E-05  0.223E-02    6.83       1.0  T
   3   -906.6305811 -0.212770E-05  0.189E-03    6.84       2.3  T
   4   -906.6305815 -0.328191E-06  0.498E-04    6.84       8.7  T
   5   -906.6305815 -0.413104E-08  0.773E-05    6.84      56.1  T
     SCC iter.                  ...        0 min,  1.212 sec
     gradient                   ...        0 min,  4.784 sec
 * total energy  :  -901.1808738 Eh     change       -0.1886245E-03 Eh
   gradient norm :     0.0416107 Eh/a0  converged?    E=F G=F D=F
   step length   :     0.6214185 a0

........................................................................
.............................. CYCLE    8 ..............................
........................................................................
   1   -906.6388274 -0.906639E+03  0.183E-02    6.87       0.0  T
   2   -906.6388302 -0.278542E-05  0.109E-02    6.87       1.0  T
   3   -906.6388309 -0.664269E-06  0.109E-03    6.86       4.0  T
   4   -906.6388310 -0.924938E-07  0.299E-04    6.87      14.5  T
   5   -906.6388310 -0.135344E-08  0.381E-05    6.87     113.8  T
     SCC iter.                  ...        0 min,  1.246 sec
     gradient                   ...        0 min,  4.784 sec
 * total energy  :  -901.1816373 Eh     change       -0.7634976E-03 Eh
   gradient norm :     0.0129648 Eh/a0  converged?    E=F G=F D=F
   step length   :     0.2358112 a0

........................................................................
.............................. CYCLE    9 ..............................
........................................................................
   1   -906.6395198 -0.906640E+03  0.927E-03    6.89       0.0  T
   2   -906.6395205 -0.676138E-06  0.563E-03    6.89       1.0  T
   3   -906.6395207 -0.243494E-06  0.538E-04    6.89       8.1  T
   4   -906.6395207 -0.217308E-07  0.163E-04    6.89      26.6  T
     SCC iter.                  ...        0 min,  0.988 sec
     gradient                   ...        0 min,  4.869 sec
 * total energy  :  -901.1819874 Eh     change       -0.3500945E-03 Eh
   gradient norm :     0.0103214 Eh/a0  converged?    E=F G=F D=F
   step length   :     0.1623579 a0

........................................................................
.............................. CYCLE   10 ..............................
........................................................................
   1   -906.6328601 -0.906633E+03  0.446E-02    6.91       0.0  T
   2   -906.6328709 -0.107981E-04  0.270E-02    6.93       1.0  T
   3   -906.6328739 -0.304322E-05  0.206E-03    6.95       2.1  T
   4   -906.6328743 -0.372089E-06  0.549E-04    6.95       7.9  T
   5   -906.6328743 -0.454463E-08  0.867E-05    6.95      50.1  T
     SCC iter.                  ...        0 min,  1.214 sec
     gradient                   ...        0 min,  4.819 sec
 * total energy  :  -901.1819554 Eh     change        0.3201464E-04 Eh
   gradient norm :     0.0423765 Eh/a0  converged?    E=F G=F D=F
   step length   :     0.7075041 a0

........................................................................
.............................. CYCLE   11 ..............................
........................................................................
   1   -906.6421099 -0.906642E+03  0.254E-02    6.96       0.0  T
   2   -906.6421154 -0.554414E-05  0.152E-02    6.95       1.0  T
   3   -906.6421168 -0.141736E-05  0.158E-03    6.94       2.7  T
   4   -906.6421170 -0.188794E-06  0.433E-04    6.95      10.0  T
   5   -906.6421170 -0.354521E-08  0.605E-05    6.95      71.7  T
     SCC iter.                  ...        0 min,  1.234 sec
     gradient                   ...        0 min,  4.805 sec
 * total energy  :  -901.1827850 Eh     change       -0.8296168E-03 Eh
   gradient norm :     0.0084783 Eh/a0  converged?    E=F G=F D=F
   step length   :     0.3677830 a0

........................................................................
.............................. CYCLE   12 ..............................
........................................................................
   1   -906.6407725 -0.906641E+03  0.124E-02    6.97       0.0  T
   2   -906.6407744 -0.181989E-05  0.763E-03    6.98       1.0  T
   3   -906.6407752 -0.791678E-06  0.890E-04    6.98       4.9  T
   4   -906.6407752 -0.460016E-07  0.283E-04    6.98      15.3  T
     SCC iter.                  ...        0 min,  1.004 sec
     gradient                   ...        0 min,  4.798 sec
 * total energy  :  -901.1830313 Eh     change       -0.2462973E-03 Eh
   gradient norm :     0.0149594 Eh/a0  converged?    E=F G=F D=F
   step length   :     0.1262074 a0

........................................................................
.............................. CYCLE   13 ..............................
........................................................................
   1   -906.6367735 -0.906637E+03  0.276E-02    6.95       0.0  T
   2   -906.6367762 -0.275892E-05  0.167E-02    6.96       1.0  T
   3   -906.6367771 -0.874930E-06  0.108E-03    6.96       4.0  T
   4   -906.6367772 -0.857107E-07  0.317E-04    6.96      13.7  T
   5   -906.6367772 -0.125010E-08  0.432E-05    6.96     100.4  T
     SCC iter.                  ...        0 min,  1.231 sec
     gradient                   ...        0 min,  4.792 sec
 * total energy  :  -901.1831587 Eh     change       -0.1273857E-03 Eh
   gradient norm :     0.0314145 Eh/a0  converged?    E=F G=F D=F
   step length   :     0.3422385 a0

........................................................................
.............................. CYCLE   14 ..............................
........................................................................
   1   -906.6393879 -0.906639E+03  0.123E-02    6.96       0.0  T
   2   -906.6393897 -0.185942E-05  0.722E-03    6.96       1.0  T
   3   -906.6393902 -0.478172E-06  0.938E-04    6.96       4.6  T
   4   -906.6393903 -0.553604E-07  0.265E-04    6.96      16.4  T
     SCC iter.                  ...        0 min,  0.997 sec
     gradient                   ...        0 min,  4.822 sec
 * total energy  :  -901.1837004 Eh     change       -0.5417451E-03 Eh
   gradient norm :     0.0143730 Eh/a0  converged?    E=F G=F D=F
   step length   :     0.1425656 a0

........................................................................
.............................. CYCLE   15 ..............................
........................................................................
   1   -906.6442951 -0.906644E+03  0.996E-03    6.96       0.0  T
   2   -906.6442962 -0.109759E-05  0.590E-03    6.96       1.0  T
   3   -906.6442967 -0.467189E-06  0.748E-04    6.95       5.8  T
   4   -906.6442967 -0.284758E-07  0.252E-04    6.96      17.2  T
     SCC iter.                  ...        0 min,  0.986 sec
     gradient                   ...        0 min,  4.816 sec
 * total energy  :  -901.1838034 Eh     change       -0.1029841E-03 Eh
   gradient norm :     0.0117007 Eh/a0  converged?    E=F G=F D=F
   step length   :     0.1556418 a0

........................................................................
.............................. CYCLE   16 ..............................
........................................................................
   1   -906.6403099 -0.906640E+03  0.211E-02    6.94       0.0  T
   2   -906.6403131 -0.321866E-05  0.128E-02    6.94       1.0  T
   3   -906.6403144 -0.124443E-05  0.117E-03    6.95       3.7  T
   4   -906.6403145 -0.928433E-07  0.373E-04    6.95      11.6  T
   5   -906.6403145 -0.289810E-08  0.450E-05    6.95      96.4  T
     SCC iter.                  ...        0 min,  1.231 sec
     gradient                   ...        0 min,  4.803 sec
 * total energy  :  -901.1842578 Eh     change       -0.4544177E-03 Eh
   gradient norm :     0.0105727 Eh/a0  converged?    E=F G=F D=F
   step length   :     0.2734963 a0

........................................................................
.............................. CYCLE   17 ..............................
........................................................................
   1   -906.6387008 -0.906639E+03  0.207E-02    6.91       0.0  T
   2   -906.6387039 -0.303159E-05  0.125E-02    6.91       1.0  T
   3   -906.6387049 -0.102778E-05  0.112E-03    6.92       3.9  T
   4   -906.6387050 -0.971449E-07  0.361E-04    6.91      12.0  T
   5   -906.6387050 -0.294096E-08  0.472E-05    6.91      92.0  T
     SCC iter.                  ...        0 min,  1.210 sec
     gradient                   ...        0 min,  4.795 sec
 * total energy  :  -901.1840545 Eh     change        0.2033034E-03 Eh
   gradient norm :     0.0264082 Eh/a0  converged?    E=F G=F D=F
   step length   :     0.3233434 a0

........................................................................
.............................. CYCLE   18 ..............................
........................................................................
   1   -906.6412409 -0.906641E+03  0.113E-02    6.93       0.0  T
   2   -906.6412421 -0.123940E-05  0.694E-03    6.93       1.0  T
   3   -906.6412429 -0.756387E-06  0.795E-04    6.92       5.5  T
   4   -906.6412429 -0.192952E-07  0.205E-04    6.93      21.1  T
     SCC iter.                  ...        0 min,  0.965 sec
     gradient                   ...        0 min,  4.774 sec
 * total energy  :  -901.1845066 Eh     change       -0.4520401E-03 Eh
   gradient norm :     0.0085317 Eh/a0  converged?    E=F G=F D=F
   step length   :     0.1284243 a0

........................................................................
.............................. CYCLE   19 ..............................
........................................................................
   1   -906.6412778 -0.906641E+03  0.612E-03    6.92       0.0  T
   2   -906.6412784 -0.594483E-06  0.368E-03    6.92       1.2  T
   3   -906.6412785 -0.156965E-06  0.532E-04    6.92       8.2  T
   4   -906.6412786 -0.198263E-07  0.130E-04    6.92      33.5  T
     SCC iter.                  ...        0 min,  0.974 sec
     gradient                   ...        0 min,  4.774 sec
 * total energy  :  -901.1846018 Eh     change       -0.9519039E-04 Eh
   gradient norm :     0.0090160 Eh/a0  converged?    E=F G=F D=F
   step length   :     0.0959159 a0

........................................................................
.............................. CYCLE   20 ..............................
........................................................................
   1   -906.6423420 -0.906642E+03  0.143E-02    6.90       0.0  T
   2   -906.6423435 -0.150043E-05  0.866E-03    6.90       1.0  T
   3   -906.6423440 -0.520956E-06  0.790E-04    6.90       5.5  T
   4   -906.6423441 -0.519774E-07  0.257E-04    6.90      16.9  T
     SCC iter.                  ...        0 min,  0.974 sec
     gradient                   ...        0 min,  4.769 sec
 * total energy  :  -901.1848304 Eh     change       -0.2285768E-03 Eh
   gradient norm :     0.0080010 Eh/a0  converged?    E=F G=F D=F
   step length   :     0.2611130 a0
 * RMSD in coord.:     0.1091845 a0     energy gain  -0.9290835E-02 Eh
 * calculating model hessian...
Using Lindh-Hessian (1995)
 Shifting diagonal of input Hessian by   1.000009936860579E-002
 Lowest  eigenvalues of input Hessian
    0.010000    0.010000   -0.000000   -0.000000   -0.000000   -0.000000
   -0.000000   -0.000000   -0.000000   -0.000000   -0.000000   -0.000000
   -0.000000   -0.000000   -0.000000   -0.000000   -0.000000   -0.000000
 Highest eigenvalues
    0.296777    0.310868    1.220941    1.239638    1.378775    1.428809
 

........................................................................
.............................. CYCLE   21 ..............................
........................................................................
   1   -906.6428005 -0.906643E+03  0.202E-02    6.96       0.0  T
   2   -906.6428060 -0.543240E-05  0.124E-02    6.96       1.0  T
   3   -906.6428078 -0.182209E-05  0.142E-03    6.97       3.1  T
   4   -906.6428079 -0.153189E-06  0.333E-04    6.97      13.0  T
   5   -906.6428080 -0.204000E-08  0.474E-05    6.97      91.6  T
     SCC iter.                  ...        0 min,  1.182 sec
     gradient                   ...        0 min,  4.783 sec
 * total energy  :  -901.1858119 Eh     change       -0.9815338E-03 Eh
   gradient norm :     0.0087205 Eh/a0  converged?    E=F G=F D=F
   step length   :     0.2983717 a0

........................................................................
.............................. CYCLE   22 ..............................
........................................................................
   1   -906.6430685 -0.906643E+03  0.211E-02    7.02       0.0  T
   2   -906.6430753 -0.675794E-05  0.128E-02    7.03       1.0  T
   3   -906.6430772 -0.191684E-05  0.169E-03    7.03       2.6  T
   4   -906.6430774 -0.215802E-06  0.410E-04    7.03      10.6  T
   5   -906.6430774 -0.398961E-08  0.676E-05    7.03      64.2  T
     SCC iter.                  ...        0 min,  1.207 sec
     gradient                   ...        0 min,  4.759 sec
 * total energy  :  -901.1870535 Eh     change       -0.1241631E-02 Eh
   gradient norm :     0.0131662 Eh/a0  converged?    E=F G=F D=F
   step length   :     0.6387298 a0

........................................................................
.............................. CYCLE   23 ..............................
........................................................................
   1   -906.6447384 -0.906645E+03  0.226E-02    7.00       0.0  T
   2   -906.6447482 -0.987648E-05  0.133E-02    6.99       1.0  T
   3   -906.6447499 -0.170797E-05  0.202E-03    6.99       2.2  T
   4   -906.6447502 -0.290897E-06  0.351E-04    6.99      12.3  T
   5   -906.6447502 -0.370142E-08  0.737E-05    6.99      58.9  T
     SCC iter.                  ...        0 min,  1.206 sec
     gradient                   ...        0 min,  4.762 sec
 * total energy  :  -901.1879232 Eh     change       -0.8697053E-03 Eh
   gradient norm :     0.0169671 Eh/a0  converged?    E=F G=F D=F
   step length   :     0.8870745 a0

........................................................................
.............................. CYCLE   24 ..............................
........................................................................
   1   -906.6436221 -0.906644E+03  0.165E-02    6.99       0.0  T
   2   -906.6436269 -0.478482E-05  0.101E-02    6.99       1.0  T
   3   -906.6436285 -0.159283E-05  0.151E-03    6.99       2.9  T
   4   -906.6436287 -0.156649E-06  0.436E-04    6.99      10.0  T
   5   -906.6436287 -0.427519E-08  0.600E-05    6.99      72.3  T
     SCC iter.                  ...        0 min,  1.195 sec
     gradient                   ...        0 min,  4.769 sec
 * total energy  :  -901.1884825 Eh     change       -0.5592577E-03 Eh
   gradient norm :     0.0156312 Eh/a0  converged?    E=F G=F D=F
   step length   :     0.4371230 a0

........................................................................
.............................. CYCLE   25 ..............................
........................................................................
   1   -906.6490894 -0.906649E+03  0.252E-02    6.97       0.0  T
   2   -906.6491128 -0.234373E-04  0.149E-02    6.96       1.0  T
   3   -906.6491169 -0.404620E-05  0.328E-03    6.96       1.3  T
   4   -906.6491175 -0.574736E-06  0.552E-04    6.96       7.9  T
   5   -906.6491175 -0.883222E-08  0.118E-04    6.96      36.7  T
     SCC iter.                  ...        0 min,  1.207 sec
     gradient                   ...        0 min,  4.770 sec
 * total energy  :  -901.1889805 Eh     change       -0.4980440E-03 Eh
   gradient norm :     0.0202076 Eh/a0  converged?    E=F G=F D=F
   step length   :     0.7560868 a0

........................................................................
.............................. CYCLE   26 ..............................
........................................................................
   1   -906.6431394 -0.906643E+03  0.161E-02    6.92       0.0  T
   2   -906.6431417 -0.231314E-05  0.969E-03    6.92       1.0  T
   3   -906.6431425 -0.771992E-06  0.100E-03    6.92       4.3  T
   4   -906.6431426 -0.631616E-07  0.291E-04    6.92      14.9  T
   5   -906.6431426 -0.104637E-08  0.330E-05    6.92     131.5  T
     SCC iter.                  ...        0 min,  1.210 sec
     gradient                   ...        0 min,  4.770 sec
 * total energy  :  -901.1894609 Eh     change       -0.4804085E-03 Eh
   gradient norm :     0.0124181 Eh/a0  converged?    E=F G=F D=F
   step length   :     0.2324508 a0

........................................................................
.............................. CYCLE   27 ..............................
........................................................................
   1   -906.6467626 -0.906647E+03  0.160E-02    6.92       0.0  T
   2   -906.6467658 -0.319204E-05  0.989E-03    6.92       1.0  T
   3   -906.6467673 -0.148921E-05  0.114E-03    6.93       3.8  T
   4   -906.6467674 -0.769180E-07  0.367E-04    6.92      11.8  T
   5   -906.6467674 -0.332261E-08  0.529E-05    6.92      82.0  T
     SCC iter.                  ...        0 min,  1.207 sec
     gradient                   ...        0 min,  4.758 sec
 * total energy  :  -901.1895388 Eh     change       -0.7787315E-04 Eh
   gradient norm :     0.0044102 Eh/a0  converged?    E=F G=F D=F
   step length   :     0.4199071 a0

........................................................................
.............................. CYCLE   28 ..............................
........................................................................
   1   -906.6467143 -0.906647E+03  0.639E-03    6.92       0.0  T
   2   -906.6467172 -0.288788E-05  0.363E-03    6.91       1.2  T
   3   -906.6467177 -0.436481E-06  0.117E-03    6.91       3.7  T
   4   -906.6467177 -0.347246E-07  0.154E-04    6.91      28.2  T
   5   -906.6467177 -0.801265E-09  0.319E-05    6.91     135.9  T
     SCC iter.                  ...        0 min,  1.199 sec
     gradient                   ...        0 min,  4.749 sec
 * total energy  :  -901.1896765 Eh     change       -0.1376657E-03 Eh
   gradient norm :     0.0027088 Eh/a0  converged?    E=F G=F D=F
   step length   :     0.2755197 a0

........................................................................
.............................. CYCLE   29 ..............................
........................................................................
   1   -906.6462876 -0.906646E+03  0.327E-03    6.91       0.0  T
   2   -906.6462877 -0.135163E-06  0.198E-03    6.91       2.2  T
   3   -906.6462878 -0.324966E-07  0.231E-04    6.91      18.8  T
   4   -906.6462878 -0.498289E-08  0.583E-05    6.91      74.5  T
     SCC iter.                  ...        0 min,  0.944 sec
     gradient                   ...        0 min,  4.742 sec
 * total energy  :  -901.1896974 Eh     change       -0.2090789E-04 Eh
   gradient norm :     0.0023891 Eh/a0  converged?    E=F G=F D=F
   step length   :     0.0573492 a0

........................................................................
.............................. CYCLE   30 ..............................
........................................................................
   1   -906.6461399 -0.906646E+03  0.215E-03    6.91       0.0  T
   2   -906.6461399 -0.243698E-07  0.129E-03    6.91       3.4  T
   3   -906.6461399 -0.417299E-08  0.894E-05    6.91      48.5  T
   4   -906.6461399 -0.978048E-09  0.179E-05    6.91     242.6  T
     SCC iter.                  ...        0 min,  0.946 sec
     gradient                   ...        0 min,  4.723 sec
 * total energy  :  -901.1897083 Eh     change       -0.1091679E-04 Eh
   gradient norm :     0.0020257 Eh/a0  converged?    E=F G=F D=F
   step length   :     0.0416918 a0

........................................................................
.............................. CYCLE   31 ..............................
........................................................................
   1   -906.6461631 -0.906646E+03  0.281E-03    6.90       0.0  T
   2   -906.6461631 -0.259058E-07  0.169E-03    6.90       2.6  T
   3   -906.6461631 -0.669922E-08  0.905E-05    6.90      48.0  T
   4   -906.6461631 -0.876867E-09  0.239E-05    6.90     181.3  T
     SCC iter.                  ...        0 min,  0.948 sec
     gradient                   ...        0 min,  4.720 sec
 * total energy  :  -901.1897173 Eh     change       -0.9010082E-05 Eh
   gradient norm :     0.0011979 Eh/a0  converged?    E=F G=F D=F
   step length   :     0.0478174 a0

........................................................................
.............................. CYCLE   32 ..............................
........................................................................
   1   -906.6462869 -0.906646E+03  0.151E-03    6.90       0.0  T
   2   -906.6462869 -0.170096E-07  0.910E-04    6.90       4.8  T
   3   -906.6462869 -0.417594E-08  0.772E-05    6.90      56.2  T
     SCC iter.                  ...        0 min,  0.715 sec
     gradient                   ...        0 min,  4.717 sec
 * total energy  :  -901.1897203 Eh     change       -0.2996296E-05 Eh
   gradient norm :     0.0009053 Eh/a0  converged?    E=F G=F D=F
   step length   :     0.0257791 a0

........................................................................
.............................. CYCLE   33 ..............................
........................................................................
   1   -906.6463620 -0.906646E+03  0.102E-03    6.90       0.0  T
   2   -906.6463620 -0.927957E-08  0.617E-04    6.91       7.0  T
   3   -906.6463620 -0.311377E-08  0.590E-05    6.91      73.5  T
     SCC iter.                  ...        0 min,  0.715 sec
     gradient                   ...        0 min,  4.718 sec
 * total energy  :  -901.1897223 Eh     change       -0.2022767E-05 Eh
   gradient norm :     0.0005988 Eh/a0  converged?    E=F G=T D=F
   step length   :     0.0142657 a0

........................................................................
.............................. CYCLE   34 ..............................
........................................................................
   1   -906.6463329 -0.906646E+03  0.241E-03    6.90       0.0  T
   2   -906.6463330 -0.509588E-07  0.146E-03    6.91       3.0  T
   3   -906.6463330 -0.166740E-07  0.141E-04    6.91      30.9  T
   4   -906.6463330 -0.177602E-08  0.435E-05    6.91      99.8  T
     SCC iter.                  ...        0 min,  0.940 sec
     gradient                   ...        0 min,  4.716 sec
 * total energy  :  -901.1897250 Eh     change       -0.2662532E-05 Eh
   gradient norm :     0.0003430 Eh/a0  converged?    E=F G=T D=F
   step length   :     0.0311004 a0

........................................................................
.............................. CYCLE   35 ..............................
........................................................................
   1   -906.6464002 -0.906646E+03  0.138E-03    6.91       0.0  T
   2   -906.6464002 -0.225468E-07  0.835E-04    6.91       5.2  T
   3   -906.6464002 -0.716204E-08  0.962E-05    6.91      45.1  T
     SCC iter.                  ...        0 min,  0.703 sec
     gradient                   ...        0 min,  4.718 sec
 * total energy  :  -901.1897259 Eh     change       -0.9176283E-06 Eh
   gradient norm :     0.0005341 Eh/a0  converged?    E=T G=T D=F
   step length   :     0.0212193 a0

   *** GEOMETRY OPTIMIZATION CONVERGED AFTER 35 CYCLES ***

------------------------------------------------------------------------
 total energy gain   :        -0.0141864 Eh       -8.9021 kcal/mol
 total RMSD          :         0.1639023 a0        0.0867 Å
 total power (kW/mol):        -1.0641817 (step)   -0.1620 (real)
------------------------------------------------------------------------

 L-ANCopt (total)              0 d,  0 h,  3 min, 49.927 sec
 setup                          ...        0 min,  0.017 sec (  0.007%)
 model hessian                  ...        0 min,  7.790 sec (  3.388%)
 ANC generation                 ...        0 min,  1.808 sec (  0.786%)
 coordinate transformation      ...        0 min,  0.002 sec (  0.001%)
 Rational function              ...        0 min,  0.000 sec (  0.000%)
 singlepoint calculation        ...        3 min, 40.133 sec ( 95.740%)
 optimization log               ...        0 min,  0.171 sec (  0.074%)
 hessian update                 ...        0 min,  0.000 sec (  0.000%)

================
 final structure:
================
$coord
        0.99384224201199       -3.06720713735890       -2.66521979988292      o
        0.66106554219700       -4.85438437509593       -2.92869805478801      h
        0.99637763062599       -2.25021870686596       -4.33878589208495      h
        2.67136860264899       -8.66177644217008        1.83770784122507      o
        2.69742208574902       -9.73028852808200        0.34503404700322      h
        4.42597513978605       -8.12071952165896        2.06024436272993      h
        6.30645358702704        7.64016664945101        2.31022745176175      o
        6.35014678427400        6.99937970048103        4.03181592289098      h
        4.62545060817606        7.38421711564099        1.59876897506910      h
        5.63764541828602       -2.99952841076402       -0.81455996446300      o
        4.07923059732403       -3.26959215140902       -1.75849293146103      h
        6.10684915920204       -1.22063728475404       -1.09035387442801      h
      -11.90636353364788        0.73092136820064        8.83718324895513      o
      -12.49575242689001        2.04486796579313        7.65606557016483      h
      -10.56754024558810       -0.13446528994791        7.91361478684890      h
        5.78948583599399       -8.36171216767693       -3.31046524882765      o
        5.83181095914796       -6.85478352697910       -4.39340377211198      h
        6.67751534221305       -9.68994490201595       -4.25182213971208      h
       -3.75416789508301       -4.97780280127674        5.99223224992684      o
       -3.31968775982604       -3.33847881936603        6.69580533335803      h
       -2.69767915405087       -5.24332895521587        4.50436449593507      h
        7.87178384328186       -6.03346255940844        6.99148536692591      o
        8.12475182418100       -4.98331412275694        5.50002632293776      h
        6.82074528788295       -4.98520112674482        8.08669357863196      h
       -1.69072404301710       -6.28064424045707        1.51934989288805      o
       -2.71742013668496       -7.80365414001398        1.74956117842299      h
        0.04452178047098       -6.92050110486602        1.52094803299001      h
        1.84636237108908        5.58110824622417        5.66710962882295      o
        0.02246286867999        5.70674291691965        5.86848517224567      h
        2.52035901296998        7.27562416722076        5.93877484210101      h
       -4.41527881205596       -0.36115393998605       -3.81262957066604      o
       -4.26464269572000       -2.16247809155715       -3.44516396887503      h
       -4.94422294109901        0.48509731767395       -2.26677198487306      h
        7.10434967519220        5.59398581677519        7.08737052419815      o
        8.57047123548006        6.45303992295507        7.78245596626708      h
        5.72910581040500        5.81019231249701        8.30556920340796      h
        2.32503497599304        7.49044762770011       -0.60296713827004      o
        0.82971349978291        7.94415961827192        0.40668219681198      h
        1.77188280274909        6.32233707623788       -1.90265510936720      h
       -6.22742588201908        7.51581372222985        1.52519638126568      o
       -6.61632287392704        9.06960244814789        0.59432217382097      h
       -6.83559538178231        7.77941574624701        3.23265250532497      h
       -2.75897036561986       -0.82689236230578       -9.50132801738313      o
       -4.07657767474689       -1.56275078052294       -8.45234971056802      h
       -2.67333585347202       -1.94114396695718      -10.96396900369545      h
       -2.54419136699117       10.50946642340589       -7.02388887440053      o
       -2.31837069567197       10.11053063599113       -8.78179126007798      h
       -1.52693101230397       11.98557019551447       -6.64403981607185      h
       -8.51030113217603        1.88495459290904       -5.86653034240412      o
       -9.78345549391105        1.63395963140997       -4.55919722476393      h
       -7.05319597463403        0.88920039931402       -5.32877354763907      h
        0.56501022568474       -5.14744635795645       -7.89600621916372      o
       -1.08271933132619       -5.94646490478393       -7.90500759027306      h
        0.80296293117390       -4.24013866185394       -9.48563866973366      h
        4.76185565400097        2.05661566258483        3.59841221673119      o
        3.83925843657803        3.46490932452409        4.34449331496202      h
        6.49342915018703        2.63863612714603        3.39370167795899      h
        8.06150826908201       -2.04329016084284        3.90208383935505      o
        6.23690060188902       -1.91883477381499        3.69888492392900      h
        8.88308933380800       -1.47403031660900        2.36266488114003      h
       -7.55738320029076       11.06717461385236       -5.47425125259494      o
       -7.85369856539196        9.26781794421775       -5.11364917626997      h
       -5.97645720037163       11.09141421137401       -6.39516005789803      h
        1.45557198678601       -0.24332177066705       -6.69904290936501      o
        1.45815344408405        1.45244482614395       -6.00645046708902      h
       -0.03654306177106       -0.40307107225302       -7.76893822856301      h
        9.56404494138708        3.45037870353704        2.64927907162895      o
        9.99278900079701        5.23138560848202        2.80556507454603      h
       11.05768540734300        2.52426845439296        3.16621247859400      h
       16.60272924161597       -3.28779199676898       -0.51428724261459      o
       17.40606477288899       -4.80139874245492       -1.14584556033299      h
       16.06424991636997       -3.68993328020205        1.19876917745896      h
      -11.12948918080902        1.69069081180898       -1.47209241530900      o
      -12.65106615144399        0.68252017632102       -1.54010710305301      h
      -11.49188374950201        3.20992032140601       -0.48036158866697      h
        6.83938488834499        1.72668716433501       -1.58597129268200      o
        8.12956743908495        1.61702910004101       -2.89917187106599      h
        7.74183691358906        2.37267340588302       -0.12800188636192      h
       -7.76813269054693       -1.67415189628488        6.73782423643805      o
       -6.16533526440588       -1.06401131012293        7.38977531933301      h
       -7.56228721147197       -1.65170915658802        4.92681754729994      h
       -9.06129637241009        2.11266646869865      -10.82780428546807      o
       -9.35476540601898        0.36238198519685      -11.37743914695012      h
       -8.81006967211701        1.97108072463289       -8.98507737879702      h
      -13.39448283435308        4.49766247835406      -10.56949246855381      o
      -14.39520321149103        4.23486891141198      -12.05138785687804      h
      -11.72676552238803        3.70901312369299      -10.87888732085716      h
       12.73904775178697       -6.27853446877021        7.96673637676690      o
       10.89989672477599       -6.47167528268306        7.71558338542400      h
       13.45934684835106       -7.92598758400918        7.75263342079403      h
       10.90618170100509       -8.05128210460114       -8.77684432150436      o
       10.48220563975099       -6.24786049876732       -8.60572605066198      h
       10.53882713629795       -8.46378751044605      -10.49933563660699      h
      -16.69781942633005       -8.64887211706694       -0.36071216117591      o
      -15.88060730349597      -10.11744811502309       -1.06341143759711      h
      -16.63762200571503       -8.85338968061492        1.48071882189297      h
       -6.31974200270802        2.64593768352806       -0.18238710389800      o
       -8.04436724680895        2.10478439833200       -0.47830570081601      h
       -6.41261327782701        4.44199414842606        0.19874718879599      h
        0.69522605827799       -8.06243539660009       -3.26140545816298      o
        2.51561058179304       -8.35558209058303       -3.32787140626600      h
       -0.11030912269400       -9.61290387232413       -3.78718723306396      h
        1.58834014711800        0.46724196519683        7.59283930794798      o
        2.23130014184711       -0.35831307830596        6.08891562233786      h
        1.76095156828909        2.26544965821095        7.31368013281602      h
        8.54458491092395      -11.74003579877888       -5.78007082390558      o
        9.51853404415002      -12.24367941585402       -4.28296289319001      h
        9.58711906290170      -10.60048357066606       -6.76871358644510      h
        5.49011356591608       -2.40507416399574        9.48440117532587      o
        3.83884782993104       -1.64514508465494        9.22401600306900      h
        6.69713320882293       -1.13044674236392        8.90452944803392      h
      -12.62832355551298       -5.57193683284899        0.56139026155399      o
      -11.11123234755000       -6.40975824698097       -0.03857649570999      h
      -14.02489402794802       -6.72741164066593        0.26623235246400      h
       10.90929734584603        1.74132479483292       -4.61349190666303      o
       11.89593457625103        2.72278742457702       -3.39744866493294      h
       11.93464023699696        0.21946632703003       -4.88286378235499      h
       -3.00501677415204        3.63684540072570       -6.51187517676002      o
       -3.31883201424797        1.98438855082290       -5.77911118724195      h
       -2.91596372225097        4.83914941412978       -5.08671593125510      h
        7.44473858268196       -7.24382423197891        1.33088526744298      o
        7.16075163585100       -7.89259620320802       -0.38287025787908      h
        7.29832537135100       -5.42999458706904        1.14788136946798      h
        2.06101842452619       -0.10333757746856       12.96102438150915      o
        0.92105624228784        1.10517238760405       12.19049672429200      h
        3.68886166348032        0.71455240593672       13.11170026221505      h
        7.78264666928430       -2.91135363885631       13.99392603283818      o
        6.80872784102599       -3.01038025519115       12.42361948168380      h
        9.27465372604960       -3.90438895635870       13.75377370713199      h
       -3.25099281212496       -0.71510739350401        8.89888837513505      o
       -3.17608475881995       -1.71256616034504       10.47026653998670      h
       -1.53028420854695       -0.16417213940800        8.52588012304201      h
        2.08436699112877        4.35962381395617       -4.52914937954781      o
        3.93179228128602        4.48606754984101       -4.89398542106699      h
        1.25397861672999        5.35922032269492       -5.80477089756294      h
       -1.67323603021000       13.19689305583496       -0.65586024954951      o
       -1.04136911514287       13.55823107648303       -2.33964118866316      h
       -0.47809137584602       14.03684346678085        0.51955244751098      h
       -7.10532040681389      -13.99543219015083        0.82442187992024      o
       -6.08824330338810      -12.61804278929113        1.57083101359982      h
       -8.72203199661309      -13.84690477024708        1.64472923893181      h
      -11.74210201492809       -0.55187205020908        3.70008949420805      o
      -10.62657069561204       -1.15651007924999        2.35547263066395      h
      -13.28618346241900        0.10763859864299        2.93332058713203      h
       16.22224169987980        5.46002673111783       -6.46075098899814      o
       14.54176794785209        5.17986752114002       -7.14764563069103      h
       16.76726830155191        7.03451536938709       -7.16904400087002      h
       -4.24871911691666        2.83322799018197      -12.92197082996276      o
       -6.03394718340710        2.73111683994102      -12.54203980892907      h
       -3.45016303572789        1.80494079979892      -11.62735015748791      h
      -16.00825630640300        1.02909816778598        1.56157441553705      o
      -16.33177154872504        2.84026610950675        1.52271658385293      h
      -17.44416969636994        0.19441829265304        2.34264674147200      h
        3.69880899190618        5.78179704925299       10.92022402606643      o
        4.77336322842014        4.89415505930841       12.09559014232776      h
        2.07412788958491        4.91323347643506       10.95216292533098      h
      -13.46515954729401        6.10529996980612       -3.21226097848624      o
      -13.54816545140296        4.41838863880900       -3.93092495886897      h
      -14.11055623195090        7.21635573437198       -4.53846076227801      h
       -8.39191208802120        3.27794630177420        4.87948362765975      o
       -9.04753231592001        4.57356632747206        3.76172160931493      h
       -9.55293431561994        1.87420970224636        4.63735383659495      h
       13.48324583127395       -1.19696408760992        8.60769794775392      o
       11.81855821846895       -0.42902470128796        8.71632342100303      h
       13.22621678962503       -3.01188840956559        8.56363523784099      h
       17.65560347642302        1.46357957898611       -2.26251179198398      o
       17.58997950346500       -0.17261888407705       -1.43239005054799      h
       19.42578222125399        1.84330918339205       -2.51616794625701      h
      -18.73110546549204        3.43316178268899        7.01168150195994      o
      -20.01561444968405        3.19140584121098        5.67130654423806      h
      -19.48993237521209        4.51781473584099        8.24306759081109      h
        3.66935842726944        1.80045657441907      -11.71990014366793      o
        2.41329901439781        2.96262765637386      -11.03423760858501      h
        4.63677674717206        1.15420562591800      -10.26234518996509      h
       -5.38249375114909       -7.44972286828745       10.16609835483162      o
       -4.78327741690905       -6.57164329944888        8.65523439234726      h
       -7.13304135839114       -6.92636157967200       10.37829700543102      h
        6.49016646312421       12.69149096127120        1.83081766004045      o
        7.44285049644810       13.26911824933703        3.26292011508567      h
        6.31054256110697       10.85798863692691        2.08957409318791      h
       -8.25206438387002        6.50021594635391       -3.51816278254315      o
       -8.14851588785194        5.02468309484807       -4.61162771091079      h
      -10.00344415139794        6.57966641952799       -2.97547259646009      h
      -13.83592393690496        4.27336845521296        5.78958711528896      o
      -13.27926970784798        5.85669689510079        6.59436179173705      h
      -15.64133304348709        4.11144527903601        6.07330442544000      h
      -11.61569031651103       10.62743936937117        0.30787951980432      o
      -12.24222887638805       10.99169244668600       -1.39831739443893      h
      -10.02999327351992       11.51831447613604        0.41996385653502      h
      -11.31138363938798        5.69361359877786        1.57522466384905      o
      -11.43895116184701        7.46678340127517        1.08840659895297      h
      -12.58526801869797        5.33742644988198        2.85188464088605      h
       11.38500493709803       -0.90496763447486        0.14267607152992      o
       12.29989841400196        0.66632138614597        0.06270837809601      h
       12.29849376728706       -2.00469557327501        1.31555114443103      h
        9.01007697061706       11.06935799471101        6.29839503061804      o
        9.80411806338804       10.10125301907293        4.93589721901504      h
        9.87501499062899       10.54136648672288        7.80580357458980      h
        9.96831232581702       -4.33466818358702       -3.13770367173394      o
        8.17092505656798       -4.20668390852599       -2.75134137585600      h
       10.72358508224605       -2.96061070556993       -2.15267417065497      h
       -1.29807886529394       12.20445822483003        5.94773365866039      o
       -1.21210589944903       10.79248777640201        4.75700828603282      h
       -0.97072464791898       11.48504968372999        7.60388862703605      h
       -4.45327292805398        1.32145905268124       14.04927762202004      o
       -3.69725219541694       -0.32280823404987       14.26949593374416      h
       -6.23572047559319        0.98054768831121       13.79591701975300      h
       -7.87596615338296       -2.39234224898502        0.98502541492407      o
       -7.88563280629300       -4.11397877206599        1.61621930144905      h
       -8.34371147278696       -2.48722315221896       -0.78553833001097      h
       10.43005805238067       -3.06406779516603       -7.96308303119381      o
       10.40647602979000       -3.47842691426295       -6.15470308266792      h
        9.02004012833106       -1.90293540391416       -8.20907990396297      h
       -8.14049272430915       -6.62756337810129        3.97886176382570      o
       -9.72451771264704       -6.03167815053108        4.76358642073880      h
       -6.75536472391102       -5.86801527355907        4.93980762778793      h
        5.30593323662509       -4.33706420075600       -6.24506926884995      o
        6.00528913109398       -4.74241189181102       -7.91392917923184      h
        3.49234936852702       -4.40341272676800       -6.49103553599402      h
        9.17208592221099       -1.45693249252606      -13.19186996659706      o
        8.15421386871414        0.04074265511722      -13.27507119183498      h
       10.84081721198704       -0.93589340970511      -12.64056383979893      h
      -14.21301765310203        1.88068109748256       -6.17672849207506      o
      -14.02256124289999        0.10518959733761       -6.58959273193299      h
      -13.87581847451300        2.80461269518598       -7.73249068336802      h
       14.36861385370202       -1.88346857931914       -4.84464586838123      o
       14.98487531229093       -2.33933509690098       -3.16628129504290      h
       15.72032984939688       -0.89664861619293       -5.63014775597097      h
       12.46181778294889       -7.87303018160700       -0.59261662944469      o
       11.52027430808301       -6.71518368986605       -1.69930073469093      h
       14.16874165076590       -7.96620849826399       -1.24941288917087      h
      -17.49972889178889       -5.47197152349337       -4.62263969544004      o
      -16.71341555908906       -4.01032021330600       -3.78621552199698      h
      -18.01965291101117       -6.56706434040598       -3.26234973456717      h
       -1.00843414662184        3.74927636573021       11.06088308575506      o
       -2.30887403627296        3.19814208683101       12.24360608466103      h
       -1.85785008637744        4.19152060237773        9.48758532159859      h
        6.60448988907796        0.33573118939362       -7.94141337479210      o
        6.83844732765000        1.88948921633598       -6.99137620463897      h
        5.52151406260410       -0.77942373865397       -6.96210283317891      h
       -0.19837950255108        9.64679971357769       10.27494594930325      o
       -1.79198815742814        8.84168558112325       10.67923164272006      h
        1.11486860225217        8.44265535824409       10.65936225226296      h
       11.47164306852497        4.73112640573417       -8.54064532629407      o
       10.10369394538984        4.88966479455299       -9.78167823821505      h
       10.82971247668499        3.66942722822212       -7.15105304411606      h
        2.96845648469494       -3.11722477738398        3.94881357430190      o
        3.09404725422301       -3.81219323766903        2.27435025836110      h
        2.42632587859096       -4.49980899462703        5.06045011703603      h
      -14.65533099457114       -2.03824560639681       -2.21626056229204      o
      -15.88404410272696       -1.03848942110596       -1.28529274670593      h
      -13.93671963114999       -3.26304254986300       -0.99397370060804      h
      -15.49031584029108        8.17147152090374       -7.35933160355436      o
      -16.99924086930695        7.13876582262815       -7.09479027103295      h
      -14.55666575184967        7.30311906713470       -8.66960413718499      h
        0.59796843046512       14.14140208897101       -5.21345357130390      o
        1.96079758680504       12.90129717611067       -4.85158259748298      h
        1.38137537410382       15.75409832274412       -5.43788027456099      h
       14.02337651621696        1.18461316780715        4.15743413501887      o
       15.65386641255103        0.77895556547503        3.39953615259297      h
       13.90204673307398        0.15626120120894        5.69018051267001      h
       22.55621553428118        3.13511380175293       -3.16009361891331      o
       21.80724162259017        4.81073434013427       -2.92551007917501      h
       23.04683266265103        3.01362510890989       -4.89805500334597      h
       11.59644336984497        8.23706666741525        2.87948329109988      o
       12.39625314492903        8.90349950317196        1.37688207350393      h
       12.96349476657426        7.53173900027406        3.91561605235990      h
       13.62458012538200        3.99511928233702       -0.99026125234518      o
       14.06035735454705        5.79031827879376       -1.04853065965100      h
       15.20310652086606        3.09906771504075       -1.38824296550497      h
        3.20596050858284      -12.74830590320493       -1.26101460368897      o
        3.46579504852533      -12.84880712977013       -3.10000111607013      h
        1.86622381694891      -13.90575500050807       -0.85624004175798      h
       13.21726829078006       -4.44841186448588        3.13897719660107      o
       13.20532495595100       -5.03616384725189        4.87524236226621      h
       12.82560383169099       -5.90520406092315        2.07905931294217      h
        0.64852321072912      -13.03264604586393        3.80894822974823      o
       -0.29887892480484      -12.71046142156594        5.33120095523369      h
        1.44318200502398      -11.42168766076583        3.39646716943197      h
      -19.93566892934894       -2.01493061946785        2.87107856221891      o
      -19.61491965338800       -3.43307865421056        4.00612635660115      h
      -20.08151643685500       -2.61752338677606        1.16017816563008      h
      -12.40543114267595       -4.97492845346424        5.97619044060983      o
      -12.37617180129801       -3.26825975931001        5.22487513673596      h
      -12.07062806421389       -4.82762513377809        7.76643759389814      h
      -11.10386404850400      -10.92805498066837        2.74128508923431      o
      -12.66219401642496      -10.58699503357296        3.63102295684406      h
      -10.06510698248800       -9.43418259167095        2.97167004776401      h
       -3.44913450494780       -8.24881628549198       -7.62928908944389      o
       -3.94351619342101       -8.67180798944397       -9.32317920426111      h
       -2.83997493391902       -9.78215005969782       -6.84059519526590      h
       10.61626117437515      -12.55866743744783       -1.24026640600445      o
       11.24811209121096      -10.85950592699293       -0.86654557964181      h
        9.31464154808871      -12.89281093446797       -0.00571612657671      h
       -9.78982854157411       -2.81665180397164      -11.39086582783163      o
       -8.51889067984510       -3.12328189215796      -10.05461708199601      h
      -11.40367936558706       -2.96183063894303      -10.54037553767887      h
       -1.68589462442104      -12.44932773566300       -4.81627970956304      o
       -1.72661846844986      -13.23165644721808       -3.12230929688876      h
       -0.24967186685249      -13.19344481847201       -5.66306103289498      h
       18.23217736340444       -5.93152473804300        3.93206693122089      o
       17.24707561394500       -7.49888376609374        3.87669372262894      h
       19.90088597646825       -6.32635098775806        3.35991620104802      h
        5.04409817610090      -10.23251158902846        6.62955891736541      o
        6.39157346292612       -8.98100931396796        6.72848689813301      h
        5.40388514729483      -11.25515363660917        5.15987853692032      h
       -4.64143537781577      -10.14419764107011        2.81011688824308      o
       -6.05733182298902       -9.01900099940009        3.13622749775799      h
       -3.79970771325281      -10.40147818199890        4.45490760090457      h
       -8.37250823457493       -7.65037851040700       -1.61494750246796      o
       -6.78844887287899       -6.73052773450601       -1.87342101699496      h
       -8.09890139440200       -9.28711025847913       -2.38677832849411      h
       -9.64002752404706       -4.64595496714982       10.38805592591018      o
       -9.64553707183100       -3.58562672288712       11.87292135776987      h
       -8.81387084169089       -3.62369505957208        9.08896124372371      h
       17.23047325370695       -8.09504522567716       -2.56295140989278      o
       18.59560631214612       -9.24626269824998       -2.82984244825585      h
       16.62121600406587       -7.57118481999801       -4.26342943496882      h
       11.54241326280717        7.29305449198601        9.18065912923076      o
       12.92045154566900        6.84023527163709        8.04734966540280      h
       11.94311623160132        6.58195571593480       10.79495075412048      h
      -16.65189723080694       -1.26503948620246        8.54159497670039      o
      -14.87129999048002       -0.81182380002496        8.67899786264394      h
      -17.50118721144589        0.25154735371665        7.96697574192801      h
       -1.50739857547892        8.94166281483794        2.06372240409596      o
       -1.60717510801600       10.44990316968609        0.99240260324101      h
       -3.13768608292004        8.08508622819506        1.83105792149900      h
      -19.85529590481601       -0.67763736446311       -2.19458380146592      o
      -20.34889191931602       -1.13623585318095       -3.87405590293098      h
      -20.35972998972003        1.05564245580020       -1.93501561726202      h
      -15.57577365096935       -8.65584732439256        4.57261374799086      o
      -17.06146186270366       -8.09083194410104        5.47072497238420      h
      -14.38216706042905       -7.26452012034736        4.86592510683511      h
      -18.75869532243342        4.37703486068233       -6.13301525220455      o
      -17.32638479325406        3.23390947260312       -5.95880723238195      h
      -19.57528995671468        4.44229361480898       -4.49971111778255      h
       15.53258558464869       -6.38403224677453       -6.86722156484996      o
       14.87135455877302       -4.72743038466888       -6.34429901163912      h
       14.10437895082611       -7.25094684473002       -7.61989888586699      h
       -2.24245117505657      -10.38477440867415        7.19850522016070      o
       -1.02262334250678       -8.98259611079973        7.14038869565219      h
       -3.36286469244713       -9.99981308191514        8.58655890580034      h
       -4.05239469454906       -5.32382202137716       -2.76397842303394      o
       -3.24783848081489       -6.25785317211095       -4.09904433043896      h
       -2.99255076871594       -5.53904086638203       -1.24356788063817      h
       -6.61373401324895       12.08911972842492       -0.63189338691507      o
       -7.07444259207185       11.91599403213197       -2.42772876899533      h
       -4.86381802290601       12.67463425809302       -0.66026369576008      h
        6.72822922417305        4.97967562192721       -5.82621746784795      o
        7.60079809986521        5.71170247640614       -4.36074676243646      h
        6.35473545405199        6.33139014779291       -7.03636638656796      h
        6.39337708237899       -5.27526175746858      -11.11134617764920      o
        7.63401711006990       -4.10794095177127      -11.81734317816292      h
        4.78984073295244       -4.64168778416515      -11.74194361866579      h
       -1.80084158208193      -14.60100742046203       -0.27258457515693      o
       -3.49095598854678      -15.13847501950504        0.12044986797136      h
       -1.07456504328992      -13.98203031267790        1.33451257145880      h
       13.46290729990926        0.20045133137300      -10.44607774245600      o
       12.62388108570703       -1.05929990377920       -9.37776783548904      h
       12.78667295151695        1.83796280512877       -9.95710773853009      h
       20.05072144577814       -3.32250538826956       -5.18533367987155      o
       19.11570683177102       -4.66101018456467       -5.98105982879903      h
       19.59456027078728       -1.80911766389975       -6.11256226373016      h
       -7.05877012572265      -12.19211796232481       -3.86463556994092      o
       -5.32783442054903      -12.35928434056300       -4.41230383746990      h
       -7.11527758279007      -13.05423157828144       -2.21460566975242      h
      -15.29696751595108        9.72334923008620        3.79201591183355      o
      -14.09013716405695       10.49176933623296        2.63835514473879      h
      -14.42151638772210        9.56993109114298        5.38656139872647      h
      -13.75720543830574       -3.05680781256562       -7.96807927593122      o
      -12.90700465152310       -4.28559889780613       -6.90908690407407      h
      -15.49002079133222       -3.59490025270528       -8.01540463076607      h
       -9.51793441502018       -0.22026561780080       13.31055981014769      o
      -10.31806638667707        0.34785142033480       11.74456045843708      h
      -10.50505996761773        0.42552998101210       14.67990666511280      h
      -22.12169220158905        2.54339135415667        3.48282681005602      o
      -21.86115077204902        3.26486485057965        1.81942505654884      h
      -21.72571839198092        0.75556517054380        3.31682892685091      h
        4.63689642937402        8.43055303151260       -8.77563203509450      o
        3.11221740972017        7.49621503633781       -9.19508260426801      h
        4.23421073006812        9.46104709336892       -7.29607005316074      h
       15.04190647629118        5.83829921263141        5.63173005582313      o
       16.64747701894795        6.08007557278605        4.77555026174016      h
       14.57351523400687        4.07955827939373        5.20172231285996      h
        3.89635927987544       10.61567952239668       -4.25594668126877      o
        3.31911016055418        9.61020790519203       -2.80130443209107      h
        5.60502319411790       11.22043294585293       -3.80223024587290      h
       -5.15389125148709        7.72654084587819       11.01047335650779      o
       -5.65268542265012        5.96287331073046       10.65180032943980      h
       -5.99619981289380        8.20099405839872       12.53765700551798      h
       21.99063148801971       -1.68850212346629       -0.57919150286197      o
       21.31771531244600       -2.51746237130387       -2.07550066437092      h
       22.88173104490501       -0.22784137700901       -1.19795343530110      h
       -9.74919162645001       -3.15751141592895       -3.80459377808496      o
       -9.92509942509602       -4.96038896437104       -3.48238410093404      h
      -11.41957998270704       -2.43645574566096       -3.67512673673797      h
      -12.81384366289672       -7.37353734568984       -5.02255895444227      o
      -14.62408453171204       -6.99340298466291       -5.01972526124798      h
      -12.63280267239790       -8.83086285774925       -3.90432592114794      h
       -6.57826583874674       -3.66359550389577       -7.64028391167060      o
       -6.22189976568467       -5.45222728807427       -7.54081384562933      h
       -7.63235952297011       -3.27283551205507       -6.17393871743483      h
        1.88773050300827       -2.94793817255141      -12.28830049386462      o
        2.38500856915096       -1.16003149077142      -12.29378316294190      h
        0.48605355509809       -3.16149709966801      -13.42382549167025      h
        3.22985384935066       -9.23358771482114       -9.23373053539804      o
        4.69347209458644       -8.50228893698071      -10.02728353066387      h
        2.24271991184983       -7.80371902696823       -8.59430606163976      h
       -7.17308139072327        8.80797108042904        6.42397354432716      o
       -6.90768322225331       10.58836321500291        5.89157702562737      h
       -6.42154365117728        8.68827122730114        8.10406885492373      h
      -16.67204100399276        6.00683629111350        0.69588526706463      o
      -16.37100724755312        7.38801991718208        1.90183393141297      h
      -15.42980139414907        6.21479653490784       -0.67756276148396      h
       10.53724067394766       -9.96176484265381        4.35839844932101      o
        9.67908005287285      -11.54999599075685        4.17775333203106      h
        9.62017399991793       -8.80537205207900        3.24872919463723      h
        6.62834802916484      -13.29979635028175        2.41172557566112      o
        5.40741734140374      -12.98838790446116        1.04331893286611      h
        6.18842420458495      -14.91543443854750        3.09725616384211      h
       -3.19593095459118       -3.89530685596636      -13.57626080568867      o
       -4.04072891265220       -2.90906466086583      -14.83896161959005      h
       -4.36525177234542       -5.24974717734716      -13.10800452933288      h
       14.37548864269009        8.97764193155247       -1.52643832087195      o
       13.60565264066716        9.23516321581868       -3.19566898074649      h
       16.17722766809699        9.15336467802882       -1.75594730676774      h
        0.52842114285192        5.33290674055001       -9.56425955227129      o
[...]
   160   8 o      162   1 h                                       0.9724596
   163   8 o      164   1 h                                       0.9718316
   163   8 o      165   1 h                                       0.9702802
   166   8 o      167   1 h                                       0.9715202
   166   8 o      168   1 h                                       0.9674062
   169   8 o      170   1 h                                       0.9907089
   169   8 o      171   1 h                                       0.9567141
   172   8 o      173   1 h                                       0.9755336
   172   8 o      174   1 h                                       0.9868844
   175   8 o      176   1 h                                       0.9775888
   175   8 o      177   1 h                                       0.9733629
   178   8 o      179   1 h                                       0.9601582
   178   8 o      180   1 h                                       0.9844618
   181   8 o      182   1 h                                       0.9733964
   181   8 o      183   1 h                                       0.9711745
   184   8 o      185   1 h                                       0.9849601
   184   8 o      186   1 h                                       0.9708949
   187   8 o      188   1 h                                       0.9809552
   187   8 o      189   1 h                                       0.9643022
   190   8 o      191   1 h                                       0.9753810
   190   8 o      192   1 h                                       0.9728102
   193   8 o      194   1 h                                       0.9630988
   193   8 o      195   1 h                                       0.9785487
   196   8 o      197   1 h                                       0.9792109
   196   8 o      198   1 h                                       0.9611778
   199   8 o      200   1 h                                       0.9752174
   199   8 o      201   1 h                                       0.9798720
   202   8 o      203   1 h                                       0.9784599
   202   8 o      204   1 h                                       0.9710884
   205   8 o      206   1 h                                       0.9647408
   205   8 o      207   1 h                                       0.9696415
   208   8 o      209   1 h                                       0.9703633
   208   8 o      210   1 h                                       0.9703853
   211   8 o      212   1 h                                       0.9818324
   211   8 o      213   1 h                                       0.9753088
   214   8 o      215   1 h                                       0.9871684
   214   8 o      216   1 h                                       0.9784643
   217   8 o      218   1 h                                       0.9812634
   217   8 o      219   1 h                                       0.9691297
   220   8 o      221   1 h                                       0.9592594
   220   8 o      222   1 h                                       0.9700101
   223   8 o      224   1 h                                       0.9698681
   223   8 o      225   1 h                                       0.9739951
   226   8 o      227   1 h                                       0.9764002
   226   8 o      228   1 h                                       0.9783288
   229   8 o      230   1 h                                       0.9831684
   229   8 o      231   1 h                                       0.9690813
   232   8 o      233   1 h                                       0.9835181
   232   8 o      234   1 h                                       0.9641979
   235   8 o      236   1 h                                       0.9748540
   235   8 o      237   1 h                                       0.9746568
   238   8 o      239   1 h                                       0.9716523
   238   8 o      240   1 h                                       0.9722264
   241   8 o      242   1 h                                       0.9687333
   241   8 o      243   1 h                                       0.9645495
   244   8 o      245   1 h                                       0.9809899
   244   8 o      246   1 h                                       0.9857831
   247   8 o      248   1 h                                       0.9616742
   247   8 o      249   1 h                                       0.9816460
   250   8 o      251   1 h                                       0.9722974
   250   8 o      252   1 h                                       0.9914860
   253   8 o      254   1 h                                       0.9776638
   253   8 o      255   1 h                                       0.9674762
   256   8 o      257   1 h                                       0.9936864
   256   8 o      258   1 h                                       0.9561697
   259   8 o      260   1 h                                       0.9753908
   259   8 o      261   1 h                                       0.9788406
   262   8 o      263   1 h                                       0.9791489
   262   8 o      264   1 h                                       0.9577925
   265   8 o      266   1 h                                       0.9673440
   265   8 o      267   1 h                                       0.9814616
   268   8 o      269   1 h                                       0.9780531
   268   8 o      270   1 h                                       0.9833366
   271   8 o      272   1 h                                       0.9842535
   271   8 o      273   1 h                                       0.9610688
   274   8 o      275   1 h                                       0.9700285
   274   8 o      276   1 h                                       0.9756213
   277   8 o      278   1 h                                       0.9640075
   277   8 o      279   1 h                                       0.9752968
   280   8 o      281   1 h                                       0.9760929
   280   8 o      282   1 h                                       0.9629819
   283   8 o      284   1 h                                       0.9868906
   283   8 o      285   1 h                                       0.9669295
   286   8 o      287   1 h                                       0.9665778
   286   8 o      288   1 h                                       0.9705388
   289   8 o      290   1 h                                       0.9602197
   289   8 o      291   1 h                                       0.9677184
   292   8 o      293   1 h                                       0.9794859
   292   8 o      294   1 h                                       0.9656550
   295   8 o      296   1 h                                       0.9892736
   295   8 o      297   1 h                                       0.9683980
   298   8 o      299   1 h                                       0.9876257
   298   8 o      300   1 h                                       0.9661630
   301   8 o      302   1 h                                       0.9800651
   301   8 o      303   1 h                                       0.9566015
   304   8 o      305   1 h                                       0.9745679
   304   8 o      306   1 h                                       0.9664121
   307   8 o      308   1 h                                       0.9724744
   307   8 o      309   1 h                                       0.9871724
   310   8 o      311   1 h                                       0.9789319
   310   8 o      312   1 h                                       0.9684774
   313   8 o      314   1 h                                       0.9655349
   313   8 o      315   1 h                                       0.9779329
   316   8 o      317   1 h                                       0.9554721 (min)
   316   8 o      318   1 h                                       0.9952542
   319   8 o      320   1 h                                       0.9740923
   319   8 o      321   1 h                                       0.9572350
   322   8 o      323   1 h                                       0.9750097
   322   8 o      324   1 h                                       0.9687726
   325   8 o      326   1 h                                       0.9804029
   325   8 o      327   1 h                                       0.9822895
   328   8 o      329   1 h                                       0.9575881
   328   8 o      330   1 h                                       0.9650905
   331   8 o      332   1 h                                       0.9661095
   331   8 o      333   1 h                                       0.9824072
   334   8 o      335   1 h                                       0.9741171
   334   8 o      336   1 h                                       0.9669283
   337   8 o      338   1 h                                       0.9836157
   337   8 o      339   1 h                                       0.9696859
   340   8 o      341   1 h                                       0.9839654
   340   8 o      342   1 h                                       0.9656890
   343   8 o      344   1 h                                       0.9616078
   343   8 o      345   1 h                                       0.9873427
   346   8 o      347   1 h                                       0.9853573
   346   8 o      348   1 h                                       0.9765920
   349   8 o      350   1 h                                       0.9821684
   349   8 o      351   1 h                                       0.9802057
   352   8 o      353   1 h                                       0.9757916
   352   8 o      354   1 h                                       0.9714977
   355   8 o      356   1 h                                       0.9612741
   355   8 o      357   1 h                                       0.9890621
   358   8 o      359   1 h                                       0.9803677
   358   8 o      360   1 h                                       0.9725680
   361   8 o      362   1 h                                       0.9611566
   361   8 o      363   1 h                                       0.9697349
   364   8 o      365   1 h                                       0.9647909
   364   8 o      366   1 h                                       0.9856105
   367   8 o      368   1 h                                       0.9725700
   367   8 o      369   1 h                                       0.9660242
   370   8 o      371   1 h                                       0.9691653
   370   8 o      372   1 h                                       0.9604869
   373   8 o      374   1 h                                       0.9779508
   373   8 o      375   1 h                                       0.9564181
   376   8 o      377   1 h                                       0.9693209
   376   8 o      378   1 h                                       0.9729774
   379   8 o      380   1 h                                       0.9719551
   379   8 o      381   1 h                                       0.9776437
   382   8 o      383   1 h                                       0.9713476
   382   8 o      384   1 h                                       0.9896417
   385   8 o      386   1 h                                       0.9843513
   385   8 o      387   1 h                                       0.9887430
   388   8 o      389   1 h                                       0.9882965
   388   8 o      390   1 h                                       0.9564620
   391   8 o      392   1 h                                       0.9727269
   391   8 o      393   1 h                                       0.9628197
   394   8 o      395   1 h                                       0.9736186
   394   8 o      396   1 h                                       0.9652054
   397   8 o      398   1 h                                       0.9788323
   397   8 o      399   1 h                                       0.9767613
   400   8 o      401   1 h                                       0.9665412
   400   8 o      402   1 h                                       0.9777579
   403   8 o      404   1 h                                       0.9820375
   403   8 o      405   1 h                                       0.9612578
   406   8 o      407   1 h                                       0.9622740
   406   8 o      408   1 h                                       0.9797387
   409   8 o      410   1 h                                       0.9933432
   409   8 o      411   1 h                                       0.9760211
   412   8 o      413   1 h                                       0.9832737
   412   8 o      414   1 h                                       0.9861408
   415   8 o      416   1 h                                       0.9600668
   415   8 o      417   1 h                                       0.9771343
   418   8 o      419   1 h                                       0.9843527
   418   8 o      420   1 h                                       0.9574704
   421   8 o      422   1 h                                       0.9584934
   421   8 o      423   1 h                                       0.9787753
   424   8 o      425   1 h                                       0.9822328
   424   8 o      426   1 h                                       0.9656313
   427   8 o      428   1 h                                       0.9827801
   427   8 o      429   1 h                                       0.9840118
   430   8 o      431   1 h                                       0.9750726
   430   8 o      432   1 h                                       0.9636736
   433   8 o      434   1 h                                       0.9577292
   433   8 o      435   1 h                                       0.9998389 (max)
   436   8 o      437   1 h                                       0.9832499
   436   8 o      438   1 h                                       0.9582183
   439   8 o      440   1 h                                       0.9713723
   439   8 o      441   1 h                                       0.9785005
   442   8 o      443   1 h                                       0.9706145
   442   8 o      444   1 h                                       0.9846090
   445   8 o      446   1 h                                       0.9863985
   445   8 o      447   1 h                                       0.9567176
   448   8 o      449   1 h                                       0.9582855
   448   8 o      450   1 h                                       0.9742885
   451   8 o      452   1 h                                       0.9694227
   451   8 o      453   1 h                                       0.9867086
   454   8 o      455   1 h                                       0.9784384
   454   8 o      456   1 h                                       0.9582012
   457   8 o      458   1 h                                       0.9640911
   457   8 o      459   1 h                                       0.9746908
   460   8 o      461   1 h                                       0.9733633
   460   8 o      462   1 h                                       0.9608562
   463   8 o      464   1 h                                       0.9639238
   463   8 o      465   1 h                                       0.9712580
   466   8 o      467   1 h                                       0.9678034
   466   8 o      468   1 h                                       0.9733124
   469   8 o      470   1 h                                       0.9715425
   469   8 o      471   1 h                                       0.9729522
   472   8 o      473   1 h                                       0.9758538
   472   8 o      474   1 h                                       0.9819061
   475   8 o      476   1 h                                       0.9809873
   475   8 o      477   1 h                                       0.9620361
   478   8 o      479   1 h                                       0.9743373
   478   8 o      480   1 h                                       0.9768487
   481   8 o      482   1 h                                       0.9601546
   481   8 o      483   1 h                                       0.9760876
   484   8 o      485   1 h                                       0.9628981
   484   8 o      486   1 h                                       0.9821067
   487   8 o      488   1 h                                       0.9856635
   487   8 o      489   1 h                                       0.9794095
   490   8 o      491   1 h                                       0.9707409
   490   8 o      492   1 h                                       0.9693317
   493   8 o      494   1 h                                       0.9684522
   493   8 o      495   1 h                                       0.9639842
   496   8 o      497   1 h                                       0.9696582
   496   8 o      498   1 h                                       0.9774525
   499   8 o      500   1 h                                       0.9891107
   499   8 o      501   1 h                                       0.9851547
   502   8 o      503   1 h                                       0.9570745
   502   8 o      504   1 h                                       0.9899810
   505   8 o      506   1 h                                       0.9713984
   505   8 o      507   1 h                                       0.9858096
   508   8 o      509   1 h                                       0.9586766
   508   8 o      510   1 h                                       0.9859897
   511   8 o      512   1 h                                       0.9711478
   511   8 o      513   1 h                                       0.9786044
   514   8 o      515   1 h                                       0.9959245
   514   8 o      516   1 h                                       0.9568669
   517   8 o      518   1 h                                       0.9655666
   517   8 o      519   1 h                                       0.9863922
   520   8 o      521   1 h                                       0.9826137
   520   8 o      522   1 h                                       0.9627018
   523   8 o      524   1 h                                       0.9660892
   523   8 o      525   1 h                                       0.9713400
   526   8 o      527   1 h                                       0.9589572
   526   8 o      528   1 h                                       0.9789298
   529   8 o      530   1 h                                       0.9655487
   529   8 o      531   1 h                                       0.9578997

 * 1 distinct bonds (by element types)

   Z      Z             #   av. dist./Å        max./Å        min./Å
   1 H    8 O         354     0.9736787     0.9998389     0.9554721


optimized geometry written to: xtbopt.coord


           -------------------------------------------------
          | TOTAL ENERGY             -901.189725906393 Eh   |
          | GRADIENT NORM               0.007653664862 Eh/α |
          | HOMO-LUMO GAP               6.907033603057 eV   |
           -------------------------------------------------

------------------------------------------------------------------------
 * finished run on 2022/11/17 at 06:52:52.288     
------------------------------------------------------------------------
 total:
 * wall-time:     0 d,  0 h,  4 min,  4.304 sec
 *  cpu-time:     0 d,  0 h,  6 min, 19.612 sec
 * ratio c/w:     1.554 speedup
 SCF:
 * wall-time:     0 d,  0 h,  0 min,  7.928 sec
 *  cpu-time:     0 d,  0 h,  0 min, 12.659 sec
 * ratio c/w:     1.597 speedup
 ANC optimizer:
 * wall-time:     0 d,  0 h,  3 min, 55.778 sec
 *  cpu-time:     0 d,  0 h,  6 min,  5.902 sec
 * ratio c/w:     1.552 speedup

