      -----------------------------------------------------------      
     |                   =====================                   |     
     |                           x T B                           |     
     |                   =====================                   |     
     |                         S. Grimme                         |     
     |          Mulliken Center for Theoretical Chemistry        |     
     |                    University of Bonn                     |     
      -----------------------------------------------------------      

   * xtb version 6.5.1 (579679a) compiled by 'ehlert@majestix' on 2022-07-11

   xtb is free software: you can redistribute it and/or modify it under
   the terms of the GNU Lesser General Public License as published by
   the Free Software Foundation, either version 3 of the License, or
   (at your option) any later version.
   
   xtb is distributed in the hope that it will be useful,
   but WITHOUT ANY WARRANTY; without even the implied warranty of
   MERCHANTABILITY or FITNESS FOR A PARTICULAR PURPOSE.  See the
   GNU Lesser General Public License for more details.
   
   Cite this work as:
   * C. Bannwarth, E. Caldeweyher, S. Ehlert, A. Hansen, P. Pracht,
     J. Seibert, S. Spicher, S. Grimme, WIREs Comput. Mol. Sci., 2020, 11,
     e01493. DOI: 10.1002/wcms.1493
   
   for GFN2-xTB:
   * C. Bannwarth, S. Ehlert and S. Grimme., J. Chem. Theory Comput., 2019,
     15, 1652-1671. DOI: 10.1021/acs.jctc.8b01176
   for GFN1-xTB:
   * S. Grimme, C. Bannwarth, P. Shushkov, J. Chem. Theory Comput., 2017,
     13, 1989-2009. DOI: 10.1021/acs.jctc.7b00118
   for GFN0-xTB:
   * P. Pracht, E. Caldeweyher, S. Ehlert, S. Grimme, ChemRxiv, 2019, preprint.
     DOI: 10.26434/chemrxiv.8326202.v1
   for GFN-FF:
   * S. Spicher and S. Grimme, Angew. Chem. Int. Ed., 2020, 59, 15665-15673.
     DOI: 10.1002/anie.202004239
   
   for ALPB and GBSA implicit solvation:
   * S. Ehlert, M. Stahn, S. Spicher, S. Grimme, J. Chem. Theory Comput.,
     2021, 17, 4250-4261. DOI: 10.1021/acs.jctc.1c00471
   
   for DFT-D4:
   * E. Caldeweyher, C. Bannwarth and S. Grimme, J. Chem. Phys., 2017,
     147, 034112. DOI: 10.1063/1.4993215
   * E. Caldeweyher, S. Ehlert, A. Hansen, H. Neugebauer, S. Spicher,
     C. Bannwarth and S. Grimme, J. Chem. Phys., 2019, 150, 154122.
     DOI: 10.1063/1.5090222
   * E. Caldeweyher, J.-M. Mewes, S. Ehlert and S. Grimme, Phys. Chem. Chem. Phys.
     2020, 22, 8499-8512. DOI: 10.1039/D0CP00502A
   
   for sTDA-xTB:
   * S. Grimme and C. Bannwarth, J. Chem. Phys., 2016, 145, 054103.
     DOI: 10.1063/1.4959605
   
   in the mass-spec context:
   * V. Asgeirsson, C. Bauer and S. Grimme, Chem. Sci., 2017, 8, 4879.
     DOI: 10.1039/c7sc00601b
   * J. Koopman and S. Grimme, ACS Omega 2019, 4, 12, 15120-15133.
     DOI: 10.1021/acsomega.9b02011
   
   for metadynamics refer to:
   * S. Grimme, J. Chem. Theory Comput., 2019, 155, 2847-2862
     DOI: 10.1021/acs.jctc.9b00143
   
   for SPH calculations refer to:
   * S. Spicher and S. Grimme, J. Chem. Theory Comput., 2021, 17, 1701-1714
     DOI: 10.1021/acs.jctc.0c01306
   
   with help from (in alphabetical order)
   P. Atkinson, C. Bannwarth, F. Bohle, G. Brandenburg, E. Caldeweyher
   M. Checinski, S. Dohm, S. Ehlert, S. Ehrlich, I. Gerasimov, C. Hölzer
   A. Katbashev, J. Koopman, C. Lavigne, S. Lehtola, F. März, M. Müller,
   F. Musil, H. Neugebauer, J. Pisarek, C. Plett, P. Pracht, F. Pultar,
   J. Seibert, P. Shushkov, S. Spicher, M. Stahn, M. Steiner, T. Strunk,
   J. Stückrath, T. Rose, and J. Unsleber
   
 * started run on 2022/11/17 at 06:54:49.174     

           -------------------------------------------------
          |                Calculation Setup                |
           -------------------------------------------------

          program call               : xtb xtbopt.coord --gfn2 --sp --gbsa water
          hostname                   : cn0363
          coordinate file            : xtbopt.coord
          omp threads                :                     2

   ID    Z sym.   atoms
    1    8 o      1, 4, 7, 10, 13, 16, 19, 22, 25, 28, 31, 34, 37, 40, 43,
                  46, 49, 52, 55, 58, 61, 64, 67, 70, 73, 76, 79, 82, 85, 88,
                  91, 94, 97, 100, 103, 106, 109, 112, 115, 118, 121, 124,
                  127, 130, 133, 136, 139, 142, 145, 148, 151, 154, 157, 160,
                  163, 166, 169, 172, 175, 178, 181, 184, 187, 190, 193, 196,
                  199, 202, 205, 208, 211, 214, 217, 220, 223, 226, 229, 232,
                  235, 238, 241, 244, 247, 250, 253, 256, 259, 262, 265, 268,
                  271, 274, 277, 280, 283, 286, 289, 292, 295, 298, 301, 304,
                  307, 310, 313, 316, 319, 322, 325, 328, 331, 334, 337, 340,
                  343, 346, 349, 352, 355, 358, 361, 364, 367, 370, 373, 376,
                  379, 382, 385, 388, 391, 394, 397, 400, 403, 406, 409, 412,
                  415, 418, 421, 424, 427, 430, 433, 436, 439, 442, 445, 448,
                  451, 454, 457, 460, 463, 466, 469, 472, 475, 478, 481, 484,
                  487, 490, 493, 496, 499, 502, 505, 508, 511, 514, 517, 520,
                  523, 526, 529
    2    1 h      2, 3, 5, 6, 8, 9, 11, 12, 14, 15, 17, 18, 20, 21, 23, 24,
                  26, 27, 29, 30, 32, 33, 35, 36, 38, 39, 41, 42, 44, 45, 47,
                  48, 50, 51, 53, 54, 56, 57, 59, 60, 62, 63, 65, 66, 68, 69,
                  71, 72, 74, 75, 77, 78, 80, 81, 83, 84, 86, 87, 89, 90, 92,
                  93, 95, 96, 98, 99, 101, 102, 104, 105, 107, 108, 110, 111,
                  113, 114, 116, 117, 119, 120, 122, 123, 125, 126, 128, 129,
                  131, 132, 134, 135, 137, 138, 140, 141, 143, 144, 146, 147,
                  149, 150, 152, 153, 155, 156, 158, 159, 161, 162, 164, 165,
                  167, 168, 170, 171, 173, 174, 176, 177, 179, 180, 182, 183,
                  185, 186, 188, 189, 191, 192, 194, 195, 197, 198, 200, 201,
                  203, 204, 206, 207, 209, 210, 212, 213, 215, 216, 218, 219,
                  221, 222, 224, 225, 227, 228, 230, 231, 233, 234, 236, 237,
                  239, 240, 242, 243, 245, 246, 248, 249, 251, 252, 254, 255,
                  257, 258, 260, 261, 263, 264, 266, 267, 269, 270, 272, 273,
                  275, 276, 278, 279, 281, 282, 284, 285, 287, 288, 290, 291,
                  293, 294, 296, 297, 299, 300, 302, 303, 305, 306, 308, 309,
                  311, 312, 314, 315, 317, 318, 320, 321, 323, 324, 326, 327,
                  329, 330, 332, 333, 335, 336, 338, 339, 341, 342, 344, 345,
                  347, 348, 350, 351, 353, 354, 356, 357, 359, 360, 362, 363,
                  365, 366, 368, 369, 371, 372, 374, 375, 377, 378, 380, 381,
                  383, 384, 386, 387, 389, 390, 392, 393, 395, 396, 398, 399,
                  401, 402, 404, 405, 407, 408, 410, 411, 413, 414, 416, 417,
                  419, 420, 422, 423, 425, 426, 428, 429, 431, 432, 434, 435,
                  437, 438, 440, 441, 443, 444, 446, 447, 449, 450, 452, 453,
                  455, 456, 458, 459, 461, 462, 464, 465, 467, 468, 470, 471,
                  473, 474, 476, 477, 479, 480, 482, 483, 485, 486, 488, 489,
                  491, 492, 494, 495, 497, 498, 500, 501, 503, 504, 506, 507,
                  509, 510, 512, 513, 515, 516, 518, 519, 521, 522, 524, 525,
                  527, 528, 530, 531

molecular fragmentation (1/2 indicates fragments):
111222222222222222222222222222222222222222222222222222222222222222222222
222222222222222222222222222222222222222222222222222222222222222222222222
222222222222222222222222222222222222222222222222222222222222222222222222
222222222222222222222222222222222222222222222222222222222222222222222222
222222222222222222222222222222222222222222222222222222222222222222222222
222222222222222222222222222222222222222222222222222222222222222222222222
222222222222222222222222222222222222222222222222222222222222222222222222
222222222222222222222222222
# atoms in fragment 1/2:     3   528
 fragment masses (1/2) :       18.02     3170.69
CMA distance (Bohr)    :   4.321
constraining FC (au)   :  0.0500

           -------------------------------------------------
          |                 G F N 2 - x T B                 |
           -------------------------------------------------

        Reference                      10.1021/acs.jctc.8b01176
      * Hamiltonian:
        H0-scaling (s, p, d)           1.850000    2.230000    2.230000
        zeta-weighting                 0.500000
      * Dispersion:
        s8                             2.700000
        a1                             0.520000
        a2                             5.000000
        s9                             5.000000
      * Repulsion:
        kExp                           1.500000    1.000000
        rExp                           1.000000
      * Coulomb:
        alpha                          2.000000
        third order                    shell-resolved
        anisotropic                    true
        a3                             3.000000
        a5                             4.000000
        cn-shift                       1.200000
        cn-exp                         4.000000
        max-rad                        5.000000

      * Solvation model:               GBSA
        Solvent                        water
        Parameter file                 internal GFN2-xTB/GBSA
        Dielectric constant                8.0200E+01
        Reference state                gsolv [1 M gas/solution]
        Free energy shift                  1.8574E-03 Eh       1.1656E+00 kcal/mol
        Temperature                        2.9815E+02 K
        Density                            1.0000E+00 kg/L
        Solvent mass                       1.8000E+01 g/mol
        Interaction kernel             Still
        Born radius scaling (c1)           1.5524E+00
        Born radii integrator          GBOBC
        Born offset                        2.4628E-02 a0       4.6540E-02 AA
        H-bond correction              true
        Ion screening                  false
        Surface tension                    1.0000E-05 Eh       1.5569E+01 dyn/cm
        Grid points                               230 per atom

          ...................................................
          :                      SETUP                      :
          :.................................................:
          :  # basis functions                1062          :
          :  # atomic orbitals                1062          :
          :  # shells                          708          :
          :  # electrons                      1416          :
          :  max. iterations                   250          :
          :  Hamiltonian                  GFN2-xTB          :
          :  restarted?                      false          :
          :  GBSA solvation                   true          :
          :  PC potential                    false          :
          :  electronic temp.          300.0000000     K    :
          :  accuracy                    1.0000000          :
          :  -> integral cutoff          0.2500000E+02      :
          :  -> integral neglect         0.1000000E-07      :
          :  -> SCF convergence          0.1000000E-05 Eh   :
          :  -> wf. convergence          0.1000000E-03 e    :
          :  Broyden damping             0.4000000          :
          ...................................................

 iter      E             dE          RMSdq      gap      omega  full diag
   1   -906.7630636 -0.906763E+03  0.408E+00    8.65       0.0  T
   2   -906.8260478 -0.629841E-01  0.242E+00    8.25       1.0  T
   3   -906.8516647 -0.256169E-01  0.230E-01    7.20       1.0  T
   4   -906.8556929 -0.402827E-02  0.505E-02    7.52       1.0  T
   5   -906.8558361 -0.143147E-03  0.316E-02    7.44       1.0  T
   6   -906.8558700 -0.339314E-04  0.365E-03    7.45       1.2  T
   7   -906.8558711 -0.110424E-05  0.852E-04    7.45       5.1  T
   8   -906.8558712 -0.369047E-07  0.466E-04    7.45       9.3  T
   9   -906.8558712 -0.197205E-07  0.109E-04    7.45      39.7  T

   *** convergence criteria satisfied after 9 iterations ***

         #    Occupation            Energy/Eh            Energy/eV
      -------------------------------------------------------------
         1        2.0000           -0.6621062             -18.0168
       ...           ...                  ...                  ...
       702        2.0000           -0.3466739              -9.4335
       703        2.0000           -0.3441785              -9.3656
       704        2.0000           -0.3426856              -9.3249
       705        2.0000           -0.3419316              -9.3044
       706        2.0000           -0.3375697              -9.1857
       707        2.0000           -0.3319624              -9.0332
       708        2.0000           -0.3256430              -8.8612 (HOMO)
       709                         -0.0517747              -1.4089 (LUMO)
       710                         -0.0435133              -1.1841
       711                         -0.0316227              -0.8605
       712                         -0.0248306              -0.6757
       713                         -0.0171287              -0.4661
       ...                                ...                  ...
      1062                          0.4940322              13.4433
      -------------------------------------------------------------
                  HL-Gap            0.2738682 Eh            7.4523 eV
             Fermi-level           -0.1887088 Eh           -5.1350 eV

 SCC (total)                   0 d,  0 h,  0 min,  7.437 sec
 SCC setup                      ...        0 min,  0.060 sec (  0.802%)
 Dispersion                     ...        0 min,  0.050 sec (  0.668%)
 classical contributions        ...        0 min,  0.011 sec (  0.154%)
 integral evaluation            ...        0 min,  0.311 sec (  4.182%)
 iterations                     ...        0 min,  2.225 sec ( 29.919%)
 molecular gradient             ...        0 min,  4.753 sec ( 63.914%)
 printout                       ...        0 min,  0.027 sec (  0.361%)

         :::::::::::::::::::::::::::::::::::::::::::::::::::::
         ::                     SUMMARY                     ::
         :::::::::::::::::::::::::::::::::::::::::::::::::::::
         :: total energy            -901.399196874571 Eh    ::
         :: total w/o Gsasa/hb      -901.207945319218 Eh    ::
         :: gradient norm              0.105148894348 Eh/a0 ::
         :: HOMO-LUMO gap              7.452333636510 eV    ::
         ::.................................................::
         :: SCC energy              -906.855871182277 Eh    ::
         :: -> isotropic ES            5.261335065198 Eh    ::
         :: -> anisotropic ES         -1.121168179444 Eh    ::
         :: -> anisotropic XC         -0.086377716725 Eh    ::
         :: -> dispersion             -0.534639946312 Eh    ::
         :: -> Gsolv                  -0.222592151256 Eh    ::
         ::    -> Gelec               -0.031340595903 Eh    ::
         ::    -> Gsasa                0.003995941598 Eh    ::
         ::    -> Ghb                 -0.197104940078 Eh    ::
         ::    -> Gshift               0.001857443127 Eh    ::
         :: repulsion energy           5.361691030451 Eh    ::
         :: add. restraining           0.000000000000 Eh    ::
         :: total charge              -0.000000000000 e     ::
         :::::::::::::::::::::::::::::::::::::::::::::::::::::

           -------------------------------------------------
          |                Property Printout                |
           -------------------------------------------------

    * Orbital Energies and Occupations

         #    Occupation            Energy/Eh            Energy/eV
      -------------------------------------------------------------
         1        2.0000           -0.6621062             -18.0168
       ...           ...                  ...                  ...
       696        2.0000           -0.3583437              -9.7510
       697        2.0000           -0.3569686              -9.7136
       698        2.0000           -0.3543257              -9.6417
       699        2.0000           -0.3540467              -9.6341
       700        2.0000           -0.3515434              -9.5660
       701        2.0000           -0.3513045              -9.5595
       702        2.0000           -0.3466739              -9.4335
       703        2.0000           -0.3441785              -9.3656
       704        2.0000           -0.3426856              -9.3249
       705        2.0000           -0.3419316              -9.3044
       706        2.0000           -0.3375697              -9.1857
       707        2.0000           -0.3319624              -9.0332
       708        2.0000           -0.3256430              -8.8612 (HOMO)
       709                         -0.0517747              -1.4089 (LUMO)
       710                         -0.0435133              -1.1841
       711                         -0.0316227              -0.8605
       712                         -0.0248306              -0.6757
       713                         -0.0171287              -0.4661
       714                         -0.0118945              -0.3237
       715                         -0.0079075              -0.2152
       716                          0.0016640               0.0453
       717                          0.0032572               0.0886
       718                          0.0075583               0.2057
       719                          0.0132524               0.3606
       ...                                ...                  ...
      1062                          0.4940322              13.4433
      -------------------------------------------------------------
                  HL-Gap            0.2738682 Eh            7.4523 eV
             Fermi-level           -0.1887088 Eh           -5.1350 eV

     #   Z          covCN         q      C6AA      α(0)
     1   8 o        1.606    -0.700    27.710     7.104
     2   1 h        0.804     0.342     0.607     1.224
     3   1 h        0.802     0.342     0.608     1.225
     4   8 o        1.607    -0.679    27.167     7.035
     5   1 h        0.804     0.339     0.615     1.232
     6   1 h        0.803     0.346     0.598     1.214
     7   8 o        1.608    -0.674    27.019     7.015
     8   1 h        0.804     0.352     0.584     1.200
     9   1 h        0.804     0.350     0.589     1.206
    10   8 o        1.606    -0.706    27.865     7.124
    11   1 h        0.804     0.329     0.640     1.257
    12   1 h        0.803     0.341     0.610     1.227
    13   8 o        1.606    -0.705    27.854     7.123
    14   1 h        0.802     0.348     0.594     1.211
    15   1 h        0.804     0.352     0.583     1.199
    16   8 o        1.605    -0.690    27.461     7.073
    17   1 h        0.803     0.347     0.595     1.212
    18   1 h        0.803     0.325     0.652     1.268
    19   8 o        1.608    -0.692    27.504     7.078
    20   1 h        0.804     0.346     0.598     1.214
    21   1 h        0.804     0.348     0.594     1.211
    22   8 o        1.607    -0.682    27.224     7.042
    23   1 h        0.804     0.360     0.565     1.181
    24   1 h        0.804     0.341     0.610     1.227
    25   8 o        1.606    -0.678    27.133     7.030
    26   1 h        0.803     0.336     0.622     1.239
    27   1 h        0.803     0.346     0.598     1.214
    28   8 o        1.607    -0.686    27.331     7.056
    29   1 h        0.804     0.335     0.626     1.242
    30   1 h        0.804     0.331     0.634     1.251
    31   8 o        1.607    -0.689    27.421     7.067
    32   1 h        0.804     0.344     0.604     1.220
    33   1 h        0.804     0.348     0.592     1.209
    34   8 o        1.607    -0.648    26.360     6.929
    35   1 h        0.804     0.324     0.652     1.269
    36   1 h        0.803     0.340     0.613     1.230
    37   8 o        1.607    -0.692    27.500     7.078
    38   1 h        0.804     0.343     0.606     1.223
    39   1 h        0.804     0.343     0.606     1.223
    40   8 o        1.607    -0.659    26.634     6.965
    41   1 h        0.803     0.338     0.617     1.234
    42   1 h        0.804     0.337     0.621     1.237
    43   8 o        1.608    -0.670    26.935     7.004
    44   1 h        0.804     0.349     0.590     1.207
    45   1 h        0.804     0.324     0.652     1.268
    46   8 o        1.610    -0.638    26.125     6.898
    47   1 h        0.805     0.322     0.659     1.275
    48   1 h        0.804     0.332     0.633     1.250
    49   8 o        1.607    -0.692    27.501     7.078
    50   1 h        0.804     0.350     0.588     1.204
    51   1 h        0.803     0.350     0.588     1.205
    52   8 o        1.608    -0.666    26.817     6.989
    53   1 h        0.804     0.334     0.627     1.244
    54   1 h        0.803     0.338     0.618     1.234
    55   8 o        1.608    -0.706    27.867     7.125
    56   1 h        0.804     0.324     0.653     1.269
    57   1 h        0.804     0.330     0.639     1.255
    58   8 o        1.608    -0.677    27.113     7.028
    59   1 h        0.804     0.356     0.575     1.191
    60   1 h        0.804     0.351     0.587     1.203
    61   8 o        1.607    -0.692    27.498     7.077
    62   1 h        0.802     0.356     0.575     1.191
    63   1 h        0.804     0.328     0.643     1.260
    64   8 o        1.608    -0.681    27.220     7.042
    65   1 h        0.804     0.335     0.626     1.242
    66   1 h        0.804     0.333     0.629     1.246
    67   8 o        1.608    -0.676    27.087     7.024
    68   1 h        0.804     0.339     0.615     1.232
    69   1 h        0.804     0.342     0.607     1.224
    70   8 o        1.608    -0.651    26.438     6.940
    71   1 h        0.805     0.320     0.665     1.281
    72   1 h        0.804     0.347     0.595     1.212
    73   8 o        1.608    -0.686    27.354     7.059
    74   1 h        0.805     0.332     0.632     1.248
    75   1 h        0.803     0.350     0.587     1.204
    76   8 o        1.609    -0.680    27.189     7.037
    77   1 h        0.804     0.339     0.615     1.231
    78   1 h        0.804     0.339     0.614     1.231
    79   8 o        1.609    -0.673    26.995     7.012
    80   1 h        0.804     0.355     0.578     1.194
    81   1 h        0.805     0.354     0.578     1.194
    82   8 o        1.605    -0.703    27.781     7.114
    83   1 h        0.803     0.334     0.627     1.244
    84   1 h        0.802     0.363     0.559     1.174
    85   8 o        1.607    -0.672    26.986     7.011
    86   1 h        0.806     0.316     0.675     1.290
    87   1 h        0.802     0.343     0.605     1.222
    88   8 o        1.607    -0.672    26.984     7.011
    89   1 h        0.802     0.356     0.574     1.191
    90   1 h        0.806     0.315     0.679     1.294
    91   8 o        1.608    -0.663    26.757     6.981
    92   1 h        0.802     0.359     0.567     1.183
    93   1 h        0.806     0.307     0.701     1.315
    94   8 o        1.608    -0.669    26.896     6.999
    95   1 h        0.805     0.324     0.652     1.268
    96   1 h        0.803     0.336     0.623     1.240
    97   8 o        1.608    -0.692    27.496     7.077
    98   1 h        0.804     0.339     0.614     1.231
    99   1 h        0.804     0.332     0.631     1.248
   100   8 o        1.608    -0.684    27.282     7.049
   101   1 h        0.803     0.337     0.620     1.237
   102   1 h        0.805     0.315     0.678     1.294
   103   8 o        1.609    -0.661    26.682     6.972
   104   1 h        0.804     0.352     0.583     1.199
   105   1 h        0.805     0.335     0.624     1.240
   106   8 o        1.607    -0.674    27.035     7.018
   107   1 h        0.803     0.336     0.622     1.239
   108   1 h        0.804     0.329     0.640     1.256
   109   8 o        1.607    -0.686    27.343     7.057
   110   1 h        0.804     0.350     0.587     1.204
   111   1 h        0.803     0.344     0.603     1.219
   112   8 o        1.609    -0.667    26.848     6.993
   113   1 h        0.804     0.348     0.594     1.210
   114   1 h        0.804     0.322     0.657     1.273
   115   8 o        1.606    -0.688    27.399     7.065
   116   1 h        0.803     0.343     0.606     1.223
   117   1 h        0.803     0.349     0.590     1.207
   118   8 o        1.606    -0.700    27.715     7.105
   119   1 h        0.804     0.352     0.583     1.199
   120   1 h        0.802     0.349     0.592     1.208
   121   8 o        1.607    -0.678    27.144     7.032
   122   1 h        0.803     0.346     0.598     1.215
   123   1 h        0.805     0.352     0.584     1.200
   124   8 o        1.609    -0.673    26.997     7.013
   125   1 h        0.804     0.343     0.604     1.221
   126   1 h        0.805     0.326     0.648     1.264
   127   8 o        1.609    -0.686    27.333     7.056
   128   1 h        0.803     0.350     0.589     1.206
   129   1 h        0.806     0.313     0.683     1.298
   130   8 o        1.605    -0.684    27.287     7.050
   131   1 h        0.802     0.327     0.646     1.262
   132   1 h        0.803     0.351     0.585     1.202
   133   8 o        1.604    -0.676    27.079     7.023
   134   1 h        0.803     0.353     0.582     1.198
   135   1 h        0.805     0.319     0.666     1.282
   136   8 o        1.605    -0.680    27.199     7.039
   137   1 h        0.804     0.326     0.648     1.264
   138   1 h        0.802     0.339     0.614     1.231
   139   8 o        1.607    -0.687    27.374     7.061
   140   1 h        0.802     0.356     0.575     1.192
   141   1 h        0.805     0.323     0.655     1.271
   142   8 o        1.607    -0.685    27.318     7.054
   143   1 h        0.803     0.349     0.591     1.208
   144   1 h        0.804     0.340     0.613     1.230
   145   8 o        1.610    -0.643    26.229     6.912
   146   1 h        0.804     0.350     0.588     1.204
   147   1 h        0.806     0.314     0.681     1.296
   148   8 o        1.609    -0.696    27.592     7.090
   149   1 h        0.805     0.320     0.664     1.280
   150   1 h        0.804     0.339     0.614     1.231
   151   8 o        1.608    -0.659    26.645     6.967
   152   1 h        0.804     0.336     0.623     1.240
   153   1 h        0.804     0.325     0.651     1.268
   154   8 o        1.608    -0.668    26.886     6.998
   155   1 h        0.805     0.325     0.651     1.268
   156   1 h        0.804     0.346     0.597     1.213
   157   8 o        1.607    -0.661    26.684     6.972
   158   1 h        0.804     0.349     0.591     1.207
   159   1 h        0.803     0.323     0.657     1.273
   160   8 o        1.609    -0.689    27.425     7.068
   161   1 h        0.804     0.336     0.622     1.239
   162   1 h        0.804     0.342     0.607     1.224
   163   8 o        1.608    -0.680    27.184     7.037
   164   1 h        0.804     0.345     0.599     1.216
   165   1 h        0.804     0.335     0.624     1.241
   166   8 o        1.610    -0.666    26.813     6.989
   167   1 h        0.804     0.345     0.600     1.217
   168   1 h        0.805     0.317     0.671     1.287
   169   8 o        1.607    -0.661    26.698     6.974
   170   1 h        0.802     0.341     0.610     1.227
   171   1 h        0.806     0.317     0.673     1.288
   172   8 o        1.605    -0.705    27.838     7.121
   173   1 h        0.804     0.334     0.627     1.243
   174   1 h        0.802     0.357     0.572     1.188
   175   8 o        1.607    -0.702    27.760     7.111
   176   1 h        0.803     0.359     0.568     1.184
   177   1 h        0.804     0.330     0.639     1.255
   178   8 o        1.608    -0.670    26.931     7.004
   179   1 h        0.805     0.315     0.678     1.294
   180   1 h        0.802     0.363     0.560     1.175
   181   8 o        1.608    -0.671    26.950     7.007
   182   1 h        0.804     0.343     0.605     1.222
   183   1 h        0.804     0.335     0.624     1.241
   184   8 o        1.606    -0.660    26.665     6.969
   185   1 h        0.803     0.332     0.632     1.248
   186   1 h        0.804     0.322     0.659     1.275
   187   8 o        1.608    -0.657    26.585     6.959
   188   1 h        0.803     0.340     0.613     1.230
   189   1 h        0.805     0.330     0.639     1.255
   190   8 o        1.608    -0.667    26.841     6.992
   191   1 h        0.804     0.332     0.632     1.248
   192   1 h        0.804     0.338     0.616     1.233
   193   8 o        1.608    -0.669    26.905     7.001
   194   1 h        0.805     0.342     0.606     1.223
   195   1 h        0.803     0.354     0.580     1.196
   196   8 o        1.608    -0.676    27.072     7.022
   197   1 h        0.803     0.351     0.586     1.202
   198   1 h        0.805     0.317     0.671     1.286
   199   8 o        1.607    -0.691    27.476     7.075
   200   1 h        0.804     0.352     0.583     1.199
   201   1 h        0.803     0.357     0.572     1.188
   202   8 o        1.607    -0.689    27.412     7.066
   203   1 h        0.803     0.354     0.579     1.196
   204   1 h        0.804     0.330     0.638     1.255
   205   8 o        1.609    -0.664    26.778     6.984
   206   1 h        0.805     0.326     0.648     1.265
   207   1 h        0.804     0.333     0.630     1.247
   208   8 o        1.608    -0.685    27.303     7.052
   209   1 h        0.804     0.334     0.626     1.243
   210   1 h        0.804     0.340     0.612     1.229
   211   8 o        1.606    -0.701    27.738     7.108
   212   1 h        0.803     0.355     0.577     1.193
   213   1 h        0.804     0.347     0.596     1.213
   214   8 o        1.605    -0.708    27.928     7.132
   215   1 h        0.802     0.345     0.601     1.218
   216   1 h        0.803     0.348     0.593     1.210
   217   8 o        1.607    -0.671    26.952     7.007
   218   1 h        0.803     0.334     0.627     1.244
   219   1 h        0.804     0.348     0.592     1.209
   220   8 o        1.610    -0.655    26.544     6.954
   221   1 h        0.805     0.322     0.657     1.273
   222   1 h        0.804     0.337     0.620     1.237
   223   8 o        1.608    -0.662    26.713     6.976
   224   1 h        0.804     0.333     0.631     1.248
   225   1 h        0.804     0.327     0.645     1.262
   226   8 o        1.607    -0.671    26.959     7.008
   227   1 h        0.803     0.353     0.582     1.199
   228   1 h        0.803     0.335     0.624     1.241
   229   8 o        1.607    -0.672    26.981     7.010
   230   1 h        0.803     0.355     0.577     1.193
   231   1 h        0.804     0.325     0.651     1.267
   232   8 o        1.607    -0.685    27.314     7.054
   233   1 h        0.802     0.353     0.582     1.198
   234   1 h        0.805     0.318     0.669     1.285
   235   8 o        1.607    -0.684    27.287     7.050
   236   1 h        0.804     0.330     0.636     1.253
   237   1 h        0.804     0.355     0.577     1.194
   238   8 o        1.608    -0.673    26.993     7.012
   239   1 h        0.804     0.351     0.585     1.201
   240   1 h        0.804     0.353     0.582     1.198
   241   8 o        1.609    -0.674    27.034     7.017
   242   1 h        0.804     0.334     0.626     1.243
   243   1 h        0.805     0.337     0.620     1.237
   244   8 o        1.605    -0.706    27.864     7.124
   245   1 h        0.803     0.332     0.631     1.248
   246   1 h        0.802     0.361     0.564     1.180
   247   8 o        1.608    -0.668    26.867     6.996
   248   1 h        0.805     0.326     0.649     1.265
   249   1 h        0.803     0.336     0.621     1.238
   250   8 o        1.605    -0.686    27.342     7.057
   251   1 h        0.804     0.334     0.627     1.243
   252   1 h        0.802     0.356     0.576     1.192
   253   8 o        1.608    -0.672    26.975     7.010
   254   1 h        0.803     0.340     0.613     1.230
   255   1 h        0.805     0.335     0.626     1.242
   256   8 o        1.606    -0.681    27.213     7.041
   257   1 h        0.802     0.352     0.583     1.200
   258   1 h        0.806     0.320     0.664     1.280
   259   8 o        1.607    -0.664    26.763     6.982
   260   1 h        0.804     0.341     0.610     1.227
   261   1 h        0.803     0.336     0.621     1.238
   262   8 o        1.609    -0.660    26.672     6.970
   263   1 h        0.803     0.341     0.611     1.228
   264   1 h        0.806     0.317     0.671     1.286
   265   8 o        1.607    -0.666    26.821     6.990
   266   1 h        0.805     0.329     0.639     1.255
   267   1 h        0.803     0.335     0.626     1.243
   268   8 o        1.606    -0.696    27.609     7.092
   269   1 h        0.803     0.328     0.644     1.260
   270   1 h        0.803     0.346     0.599     1.216
   271   8 o        1.608    -0.658    26.623     6.964
   272   1 h        0.803     0.344     0.603     1.220
   273   1 h        0.805     0.325     0.650     1.267
   274   8 o        1.608    -0.671    26.953     7.007
   275   1 h        0.804     0.323     0.656     1.272
   276   1 h        0.804     0.340     0.613     1.230
   277   8 o        1.609    -0.676    27.089     7.025
   278   1 h        0.805     0.325     0.651     1.268
   279   1 h        0.804     0.354     0.578     1.195
   280   8 o        1.609    -0.653    26.497     6.947
   281   1 h        0.803     0.336     0.621     1.238
   282   1 h        0.805     0.329     0.640     1.256
   283   8 o        1.607    -0.669    26.910     7.001
   284   1 h        0.802     0.363     0.558     1.174
   285   1 h        0.805     0.327     0.646     1.263
   286   8 o        1.609    -0.664    26.774     6.984
   287   1 h        0.805     0.332     0.632     1.248
   288   1 h        0.804     0.357     0.573     1.189
   289   8 o        1.610    -0.626    25.820     6.858
   290   1 h        0.805     0.320     0.665     1.280
   291   1 h        0.805     0.334     0.626     1.243
   292   8 o        1.608    -0.694    27.559     7.085
   293   1 h        0.803     0.345     0.600     1.216
   294   1 h        0.805     0.325     0.649     1.266
   295   8 o        1.606    -0.700    27.721     7.106
   296   1 h        0.802     0.357     0.572     1.188
   297   1 h        0.804     0.329     0.640     1.257
   298   8 o        1.606    -0.671    26.946     7.006
   299   1 h        0.802     0.349     0.591     1.208
   300   1 h        0.805     0.329     0.639     1.256
   301   8 o        1.609    -0.646    26.303     6.922
   302   1 h        0.803     0.338     0.617     1.234
   303   1 h        0.806     0.303     0.713     1.327
   304   8 o        1.609    -0.684    27.282     7.049
   305   1 h        0.804     0.343     0.604     1.221
   306   1 h        0.805     0.326     0.648     1.264
   307   8 o        1.606    -0.675    27.045     7.019
   308   1 h        0.804     0.350     0.589     1.205
   309   1 h        0.802     0.343     0.606     1.223
   310   8 o        1.607    -0.689    27.422     7.068
   311   1 h        0.803     0.346     0.598     1.214
   312   1 h        0.804     0.318     0.669     1.285
   313   8 o        1.608    -0.687    27.356     7.059
   314   1 h        0.805     0.321     0.660     1.276
   315   1 h        0.803     0.363     0.559     1.175
   316   8 o        1.606    -0.668    26.875     6.997
   317   1 h        0.806     0.304     0.708     1.322
   318   1 h        0.801     0.345     0.601     1.218
   319   8 o        1.609    -0.655    26.532     6.952
   320   1 h        0.804     0.346     0.598     1.215
   321   1 h        0.806     0.319     0.665     1.281
   322   8 o        1.608    -0.681    27.215     7.041
   323   1 h        0.804     0.341     0.610     1.227
   324   1 h        0.804     0.326     0.648     1.265
   325   8 o        1.607    -0.678    27.143     7.031
   326   1 h        0.803     0.336     0.622     1.239
   327   1 h        0.803     0.352     0.584     1.200
   328   8 o        1.610    -0.629    25.889     6.867
   329   1 h        0.806     0.309     0.693     1.308
   330   1 h        0.805     0.325     0.649     1.266
   331   8 o        1.607    -0.680    27.185     7.037
   332   1 h        0.805     0.318     0.669     1.285
   333   1 h        0.803     0.357     0.571     1.187
   334   8 o        1.608    -0.691    27.465     7.073
   335   1 h        0.804     0.342     0.607     1.223
   336   1 h        0.805     0.319     0.667     1.283
   337   8 o        1.608    -0.691    27.476     7.075
   338   1 h        0.802     0.356     0.575     1.191
   339   1 h        0.804     0.329     0.640     1.257
   340   8 o        1.607    -0.678    27.143     7.032
   341   1 h        0.802     0.354     0.578     1.195
   342   1 h        0.805     0.329     0.641     1.258
   343   8 o        1.607    -0.660    26.669     6.970
   344   1 h        0.805     0.329     0.639     1.256
   345   1 h        0.802     0.358     0.570     1.186
   346   8 o        1.605    -0.693    27.532     7.082
   347   1 h        0.802     0.337     0.619     1.236
   348   1 h        0.803     0.333     0.630     1.247
   349   8 o        1.609    -0.676    27.078     7.023
   350   1 h        0.803     0.355     0.577     1.193
   351   1 h        0.803     0.330     0.638     1.255
   352   8 o        1.608    -0.670    26.937     7.005
   353   1 h        0.803     0.332     0.634     1.250
   354   1 h        0.804     0.333     0.629     1.246
   355   8 o        1.607    -0.678    27.137     7.031
   356   1 h        0.805     0.321     0.660     1.276
   357   1 h        0.802     0.350     0.589     1.206
   358   8 o        1.607    -0.698    27.670     7.099
   359   1 h        0.803     0.353     0.581     1.198
   360   1 h        0.804     0.334     0.628     1.245
   361   8 o        1.610    -0.662    26.717     6.976
   362   1 h        0.805     0.322     0.659     1.275
   363   1 h        0.804     0.336     0.623     1.240
   364   8 o        1.607    -0.682    27.230     7.043
   365   1 h        0.805     0.326     0.648     1.265
   366   1 h        0.802     0.335     0.625     1.242
   367   8 o        1.609    -0.672    26.974     7.010
   368   1 h        0.804     0.339     0.614     1.231
   369   1 h        0.805     0.333     0.631     1.247
   370   8 o        1.610    -0.645    26.279     6.919
   371   1 h        0.804     0.355     0.577     1.194
   372   1 h        0.805     0.322     0.659     1.275
   373   8 o        1.609    -0.660    26.662     6.969
   374   1 h        0.803     0.356     0.574     1.190
   375   1 h        0.806     0.308     0.697     1.312
   376   8 o        1.609    -0.677    27.107     7.027
   377   1 h        0.804     0.331     0.636     1.252
   378   1 h        0.804     0.344     0.603     1.220
   379   8 o        1.607    -0.689    27.413     7.066
   380   1 h        0.804     0.335     0.624     1.240
   381   1 h        0.803     0.341     0.609     1.226
   382   8 o        1.606    -0.694    27.560     7.085
   383   1 h        0.804     0.328     0.643     1.260
   384   1 h        0.802     0.354     0.580     1.197
   385   8 o        1.605    -0.693    27.531     7.082
   386   1 h        0.802     0.356     0.574     1.191
   387   1 h        0.802     0.332     0.631     1.248
   388   8 o        1.607    -0.668    26.865     6.995
   389   1 h        0.802     0.359     0.567     1.183
   390   1 h        0.806     0.309     0.693     1.307
   391   8 o        1.609    -0.656    26.573     6.957
   392   1 h        0.804     0.344     0.603     1.220
   393   1 h        0.805     0.321     0.662     1.278
   394   8 o        1.609    -0.662    26.721     6.977
   395   1 h        0.804     0.347     0.595     1.212
   396   1 h        0.805     0.346     0.597     1.214
   397   8 o        1.606    -0.690    27.453     7.072
   398   1 h        0.803     0.327     0.646     1.262
   399   1 h        0.803     0.332     0.631     1.248
   400   8 o        1.608    -0.667    26.844     6.993
   401   1 h        0.805     0.337     0.619     1.236
   402   1 h        0.803     0.358     0.570     1.186
   403   8 o        1.608    -0.658    26.610     6.962
   404   1 h        0.803     0.345     0.599     1.216
   405   1 h        0.805     0.320     0.664     1.280
   406   8 o        1.609    -0.686    27.352     7.059
   407   1 h        0.805     0.321     0.661     1.277
   408   1 h        0.803     0.352     0.584     1.201
   409   8 o        1.604    -0.681    27.209     7.040
   410   1 h        0.802     0.335     0.625     1.242
   411   1 h        0.803     0.335     0.626     1.243
   412   8 o        1.607    -0.680    27.193     7.038
   413   1 h        0.803     0.340     0.612     1.229
   414   1 h        0.802     0.353     0.581     1.197
   415   8 o        1.609    -0.664    26.774     6.984
   416   1 h        0.805     0.311     0.690     1.305
   417   1 h        0.803     0.362     0.561     1.176
   418   8 o        1.608    -0.661    26.691     6.973
   419   1 h        0.802     0.354     0.579     1.195
   420   1 h        0.806     0.310     0.693     1.307
   421   8 o        1.609    -0.650    26.409     6.936
   422   1 h        0.806     0.316     0.676     1.291
   423   1 h        0.803     0.346     0.598     1.214
   424   8 o        1.607    -0.662    26.731     6.978
   425   1 h        0.803     0.345     0.599     1.216
   426   1 h        0.805     0.321     0.662     1.278
   427   8 o        1.605    -0.699    27.696     7.103
   428   1 h        0.803     0.357     0.572     1.189
   429   1 h        0.802     0.317     0.671     1.287
   430   8 o        1.609    -0.672    26.965     7.008
   431   1 h        0.804     0.335     0.624     1.241
   432   1 h        0.805     0.328     0.641     1.258
   433   8 o        1.605    -0.676    27.095     7.025
   434   1 h        0.806     0.317     0.673     1.289
   435   1 h        0.802     0.359     0.567     1.183
   436   8 o        1.608    -0.672    26.987     7.011
   437   1 h        0.803     0.349     0.592     1.209
   438   1 h        0.806     0.315     0.678     1.293
   439   8 o        1.607    -0.679    27.160     7.034
   440   1 h        0.804     0.337     0.619     1.236
   441   1 h        0.803     0.335     0.625     1.242
   442   8 o        1.607    -0.693    27.532     7.082
   443   1 h        0.804     0.329     0.641     1.258
   444   1 h        0.802     0.348     0.593     1.210
   445   8 o        1.608    -0.659    26.643     6.966
   446   1 h        0.802     0.357     0.573     1.189
   447   1 h        0.806     0.312     0.685     1.300
   448   8 o        1.609    -0.641    26.181     6.906
   449   1 h        0.806     0.305     0.706     1.319
   450   1 h        0.804     0.333     0.631     1.247
   451   8 o        1.606    -0.691    27.479     7.075
   452   1 h        0.804     0.343     0.605     1.222
   453   1 h        0.802     0.363     0.558     1.174
   454   8 o        1.609    -0.665    26.789     6.986
   455   1 h        0.803     0.357     0.573     1.190
   456   1 h        0.806     0.313     0.683     1.298
   457   8 o        1.609    -0.673    26.993     7.012
   458   1 h        0.805     0.337     0.618     1.235
   459   1 h        0.804     0.342     0.607     1.224
   460   8 o        1.609    -0.659    26.645     6.967
   461   1 h        0.804     0.342     0.606     1.223
   462   1 h        0.805     0.323     0.656     1.273
   463   8 o        1.609    -0.670    26.912     7.002
   464   1 h        0.805     0.324     0.653     1.270
   465   1 h        0.804     0.337     0.620     1.237
   466   8 o        1.608    -0.682    27.248     7.045
   467   1 h        0.805     0.329     0.640     1.257
   468   1 h        0.804     0.345     0.600     1.217
   469   8 o        1.609    -0.677    27.117     7.028
   470   1 h        0.804     0.337     0.620     1.236
   471   1 h        0.804     0.338     0.617     1.233
   472   8 o        1.607    -0.689    27.430     7.068
   473   1 h        0.803     0.332     0.633     1.250
   474   1 h        0.803     0.344     0.602     1.219
   475   8 o        1.609    -0.669    26.907     7.001
   476   1 h        0.803     0.347     0.596     1.213
   477   1 h        0.805     0.331     0.634     1.251
   478   8 o        1.608    -0.691    27.478     7.075
   479   1 h        0.804     0.332     0.631     1.248
   480   1 h        0.803     0.353     0.581     1.197
   481   8 o        1.609    -0.679    27.164     7.034
   482   1 h        0.805     0.321     0.661     1.277
   483   1 h        0.803     0.354     0.578     1.194
   484   8 o        1.608    -0.675    27.050     7.019
   485   1 h        0.805     0.346     0.598     1.215
   486   1 h        0.803     0.360     0.565     1.181
   487   8 o        1.606    -0.669    26.890     6.999
   488   1 h        0.802     0.335     0.625     1.242
   489   1 h        0.803     0.337     0.619     1.236
   490   8 o        1.609    -0.648    26.357     6.929
   491   1 h        0.804     0.326     0.647     1.264
   492   1 h        0.804     0.345     0.601     1.218
   493   8 o        1.609    -0.662    26.717     6.976
   494   1 h        0.804     0.340     0.612     1.229
   495   1 h        0.805     0.328     0.642     1.259
   496   8 o        1.608    -0.685    27.320     7.054
   497   1 h        0.804     0.345     0.599     1.216
   498   1 h        0.803     0.338     0.617     1.234
   499   8 o        1.604    -0.721    28.280     7.177
   500   1 h        0.802     0.360     0.566     1.182
   501   1 h        0.802     0.346     0.598     1.215
   502   8 o        1.607    -0.659    26.650     6.967
   503   1 h        0.806     0.314     0.679     1.294
   504   1 h        0.802     0.355     0.578     1.194
   505   8 o        1.606    -0.653    26.498     6.947
   506   1 h        0.804     0.327     0.646     1.263
   507   1 h        0.802     0.341     0.610     1.227
   508   8 o        1.607    -0.670    26.925     7.003
   509   1 h        0.805     0.316     0.676     1.291
   510   1 h        0.802     0.350     0.589     1.206
   511   8 o        1.607    -0.680    27.191     7.038
   512   1 h        0.804     0.330     0.638     1.255
   513   1 h        0.803     0.335     0.625     1.242
   514   8 o        1.606    -0.663    26.759     6.982
   515   1 h        0.801     0.357     0.573     1.189
   516   1 h        0.806     0.311     0.689     1.304
   517   8 o        1.607    -0.677    27.116     7.028
   518   1 h        0.805     0.324     0.653     1.270
   519   1 h        0.802     0.350     0.588     1.204
   520   8 o        1.608    -0.657    26.600     6.961
   521   1 h        0.802     0.354     0.579     1.195
   522   1 h        0.805     0.332     0.632     1.249
   523   8 o        1.609    -0.671    26.953     7.007
   524   1 h        0.805     0.342     0.608     1.225
   525   1 h        0.804     0.328     0.642     1.259
   526   8 o        1.608    -0.652    26.473     6.944
   527   1 h        0.805     0.313     0.684     1.299
   528   1 h        0.803     0.334     0.626     1.243
   529   8 o        1.610    -0.637    26.079     6.892
   530   1 h        0.805     0.338     0.618     1.235
   531   1 h        0.806     0.313     0.682     1.297

 Mol. C6AA /au·bohr⁶  :    1428645.809553
 Mol. C8AA /au·bohr⁸  :   25907227.096126
 Mol. α(0) /au        :       1680.162844


Wiberg/Mayer (AO) data.
largest (>0.10) Wiberg bond orders for each atom

 ---------------------------------------------------------------------------
     #   Z sym  total        # sym  WBO       # sym  WBO       # sym  WBO
 ---------------------------------------------------------------------------
     1   8 o    1.838 --     2 h    0.824     3 h    0.801
     2   1 h    0.883 --     1 o    0.824
     3   1 h    0.883 --     1 o    0.801
     4   8 o    1.863 --     5 h    0.837     6 h    0.801
     5   1 h    0.885 --     4 o    0.837
     6   1 h    0.880 --     4 o    0.801
     7   8 o    1.890 --     8 h    0.815     9 h    0.812
     8   1 h    0.876 --     7 o    0.815
     9   1 h    0.878 --     7 o    0.812
    10   8 o    1.830 --    11 h    0.820    12 h    0.794
    11   1 h    0.892 --    10 o    0.820
    12   1 h    0.884 --    10 o    0.794
    13   8 o    1.841 --    15 h    0.816    14 h    0.796
    14   1 h    0.879 --    13 o    0.796
    15   1 h    0.876 --    13 o    0.816
    16   8 o    1.860 --    18 h    0.819    17 h    0.799
    17   1 h    0.880 --    16 o    0.799
    18   1 h    0.895 --    16 o    0.819
    19   8 o    1.847 --    20 h    0.818    21 h    0.812
    20   1 h    0.880 --    19 o    0.818
    21   1 h    0.879 --    19 o    0.812
    22   8 o    1.880 --    24 h    0.819    23 h    0.814
    23   1 h    0.870 --    22 o    0.814
    24   1 h    0.884 --    22 o    0.819
    25   8 o    1.881 --    26 h    0.822    27 h    0.809
    26   1 h    0.887 --    25 o    0.822
    27   1 h    0.880 --    25 o    0.809
    28   8 o    1.819 --    30 h    0.828    29 h    0.823
    29   1 h    0.888 --    28 o    0.823
    30   1 h    0.890 --    28 o    0.828
    31   8 o    1.847 --    33 h    0.825    32 h    0.809
    32   1 h    0.882 --    31 o    0.809
    33   1 h    0.879 --    31 o    0.825
    34   8 o    1.897 --    35 h    0.847    36 h    0.825
    35   1 h    0.895 --    34 o    0.847
    36   1 h    0.884 --    34 o    0.825
    37   8 o    1.869 --    39 h    0.817    38 h    0.794
    38   1 h    0.883 --    37 o    0.794
    39   1 h    0.883 --    37 o    0.817
    40   8 o    1.885 --    42 h    0.837    41 h    0.818
    41   1 h    0.886 --    40 o    0.818
    42   1 h    0.887 --    40 o    0.837
    43   8 o    1.860 --    45 h    0.836    44 h    0.826
    44   1 h    0.878 --    43 o    0.826
    45   1 h    0.895 --    43 o    0.836
    46   8 o    1.854 --    47 h    0.878    48 h    0.847
    47   1 h    0.896 --    46 o    0.878
    48   1 h    0.890 --    46 o    0.847
    49   8 o    1.857 --    50 h    0.816    51 h    0.809
    50   1 h    0.877 --    49 o    0.816
    51   1 h    0.877 --    49 o    0.809
    52   8 o    1.874 --    53 h    0.826    54 h    0.826
    53   1 h    0.888 --    52 o    0.826
    54   1 h    0.886 --    52 o    0.826
    55   8 o    1.770 --    56 h    0.835    57 h    0.832
    56   1 h    0.895 --    55 o    0.835
    57   1 h    0.891 --    55 o    0.832
    58   8 o    1.884 --    59 h    0.821    60 h    0.818
    59   1 h    0.873 --    58 o    0.821
    60   1 h    0.877 --    58 o    0.818
    61   8 o    1.841 --    63 h    0.848    62 h    0.796
    62   1 h    0.873 --    61 o    0.796
    63   1 h    0.893 --    61 o    0.848
    64   8 o    1.849 --    65 h    0.827    66 h    0.827
    65   1 h    0.888 --    64 o    0.827
    66   1 h    0.889 --    64 o    0.827
    67   8 o    1.841 --    69 h    0.832    68 h    0.829
    68   1 h    0.885 --    67 o    0.829
    69   1 h    0.883 --    67 o    0.832
    70   8 o    1.865 --    71 h    0.861    72 h    0.821
    71   1 h    0.898 --    70 o    0.861
    72   1 h    0.880 --    70 o    0.821
    73   8 o    1.837 --    74 h    0.830    75 h    0.808
    74   1 h    0.890 --    73 o    0.830
    75   1 h    0.877 --    73 o    0.808
    76   8 o    1.847 --    78 h    0.840    77 h    0.826
    77   1 h    0.885 --    76 o    0.826
    78   1 h    0.885 --    76 o    0.840
    79   8 o    1.861 --    81 h    0.840    80 h    0.816
    80   1 h    0.874 --    79 o    0.816
    81   1 h    0.874 --    79 o    0.840
    82   8 o    1.863 --    83 h    0.813    84 h    0.789
    83   1 h    0.888 --    82 o    0.813
    84   1 h    0.868 --    82 o    0.789
    85   8 o    1.828 --    86 h    0.895    87 h    0.790
    86   1 h    0.900 --    85 o    0.895
    87   1 h    0.882 --    85 o    0.790
    88   8 o    1.838 --    90 h    0.888    89 h    0.789
    89   1 h    0.873 --    88 o    0.789
    90   1 h    0.901 --    88 o    0.888
    91   8 o    1.837 --    93 h    0.901    92 h    0.799
    92   1 h    0.871 --    91 o    0.799
    93   1 h    0.906 --    91 o    0.901
    94   8 o    1.832 --    95 h    0.875    96 h    0.821
    95   1 h    0.895 --    94 o    0.875
    96   1 h    0.887 --    94 o    0.821
    97   8 o    1.801 --    98 h    0.837    99 h    0.836
    98   1 h    0.885 --    97 o    0.837
    99   1 h    0.889 --    97 o    0.836
   100   8 o    1.806 --   102 h    0.844   101 h    0.821
   101   1 h    0.886 --   100 o    0.821
   102   1 h    0.901 --   100 o    0.844
   103   8 o    1.862 --   105 h    0.853   104 h    0.836
   104   1 h    0.876 --   103 o    0.836
   105   1 h    0.887 --   103 o    0.853
   106   8 o    1.849 --   108 h    0.852   107 h    0.822
   107   1 h    0.887 --   106 o    0.822
   108   1 h    0.892 --   106 o    0.852
   109   8 o    1.867 --   110 h    0.819   111 h    0.807
   110   1 h    0.877 --   109 o    0.819
   111   1 h    0.882 --   109 o    0.807
   112   8 o    1.859 --   114 h    0.842   113 h    0.827
   113   1 h    0.879 --   112 o    0.827
   114   1 h    0.896 --   112 o    0.842
   115   8 o    1.875 --   116 h    0.814   117 h    0.804
   116   1 h    0.883 --   115 o    0.814
   117   1 h    0.878 --   115 o    0.804
   118   8 o    1.862 --   119 h    0.812   120 h    0.788
   119   1 h    0.876 --   118 o    0.812
   120   1 h    0.878 --   118 o    0.788
   121   8 o    1.871 --   123 h    0.829   122 h    0.814
   122   1 h    0.880 --   121 o    0.814
   123   1 h    0.876 --   121 o    0.829
   124   8 o    1.829 --   126 h    0.852   125 h    0.833
   125   1 h    0.882 --   124 o    0.833
   126   1 h    0.894 --   124 o    0.852
   127   8 o    1.790 --   129 h    0.898   128 h    0.811
   128   1 h    0.878 --   127 o    0.811
   129   1 h    0.902 --   127 o    0.898
   130   8 o    1.863 --   131 h    0.818   132 h    0.808
   131   1 h    0.893 --   130 o    0.818
   132   1 h    0.876 --   130 o    0.808
   133   8 o    1.870 --   135 h    0.872   134 h    0.773
   134   1 h    0.875 --   133 o    0.773
   135   1 h    0.898 --   133 o    0.872
   136   8 o    1.850 --   137 h    0.839   138 h    0.796
   137   1 h    0.894 --   136 o    0.839
   138   1 h    0.885 --   136 o    0.796
   139   8 o    1.830 --   141 h    0.874   140 h    0.789
   140   1 h    0.873 --   139 o    0.789
   141   1 h    0.895 --   139 o    0.874
   142   8 o    1.877 --   144 h    0.814   143 h    0.811
   143   1 h    0.878 --   142 o    0.811
   144   1 h    0.885 --   142 o    0.814
   145   8 o    1.846 --   147 h    0.896   146 h    0.832
   146   1 h    0.877 --   145 o    0.832
   147   1 h    0.902 --   145 o    0.896
   148   8 o    1.785 --   149 h    0.859   150 h    0.837
   149   1 h    0.898 --   148 o    0.859
   150   1 h    0.885 --   148 o    0.837
   151   8 o    1.869 --   153 h    0.844   152 h    0.826
   152   1 h    0.887 --   151 o    0.826
   153   1 h    0.895 --   151 o    0.844
   154   8 o    1.832 --   155 h    0.868   156 h    0.823
   155   1 h    0.895 --   154 o    0.868
   156   1 h    0.880 --   154 o    0.823
   157   8 o    1.880 --   158 h    0.833   159 h    0.832
   158   1 h    0.878 --   157 o    0.833
   159   1 h    0.896 --   157 o    0.832
   160   8 o    1.823 --   161 h    0.825   162 h    0.825
   161   1 h    0.887 --   160 o    0.825
   162   1 h    0.883 --   160 o    0.825
   163   8 o    1.834 --   165 h    0.847   164 h    0.828
   164   1 h    0.881 --   163 o    0.828
   165   1 h    0.888 --   163 o    0.847
   166   8 o    1.840 --   168 h    0.844   167 h    0.827
   167   1 h    0.881 --   166 o    0.827
   168   1 h    0.899 --   166 o    0.844
   169   8 o    1.843 --   171 h    0.894   170 h    0.799
   170   1 h    0.884 --   169 o    0.799
   171   1 h    0.900 --   169 o    0.894
   172   8 o    1.849 --   173 h    0.834   174 h    0.787
   173   1 h    0.888 --   172 o    0.834
   174   1 h    0.872 --   172 o    0.787
   175   8 o    1.826 --   177 h    0.839   176 h    0.809
   176   1 h    0.871 --   175 o    0.809
   177   1 h    0.891 --   175 o    0.839
   178   8 o    1.853 --   179 h    0.888   180 h    0.791
   179   1 h    0.901 --   178 o    0.888
   180   1 h    0.868 --   178 o    0.791
   181   8 o    1.859 --   183 h    0.839   182 h    0.825
   182   1 h    0.882 --   181 o    0.825
   183   1 h    0.888 --   181 o    0.839
   184   8 o    1.886 --   186 h    0.844   185 h    0.808
   185   1 h    0.890 --   184 o    0.808
   186   1 h    0.896 --   184 o    0.844
   187   8 o    1.861 --   189 h    0.860   188 h    0.823
   188   1 h    0.885 --   187 o    0.823
   189   1 h    0.891 --   187 o    0.860
   190   8 o    1.869 --   192 h    0.830   191 h    0.824
   191   1 h    0.889 --   190 o    0.824
   192   1 h    0.885 --   190 o    0.830
   193   8 o    1.871 --   194 h    0.844   195 h    0.810
   194   1 h    0.883 --   193 o    0.844
   195   1 h    0.875 --   193 o    0.810
   196   8 o    1.819 --   198 h    0.879   197 h    0.816
   197   1 h    0.877 --   196 o    0.816
   198   1 h    0.899 --   196 o    0.879
   199   8 o    1.886 --   200 h    0.810   201 h    0.799
   200   1 h    0.876 --   199 o    0.810
   201   1 h    0.872 --   199 o    0.799
   202   8 o    1.847 --   204 h    0.839   203 h    0.809
   203   1 h    0.875 --   202 o    0.809
   204   1 h    0.891 --   202 o    0.839
   205   8 o    1.817 --   206 h    0.872   207 h    0.846
   206   1 h    0.894 --   205 o    0.872
   207   1 h    0.889 --   205 o    0.846
   208   8 o    1.830 --   209 h    0.839   210 h    0.830
   209   1 h    0.888 --   208 o    0.839
   210   1 h    0.884 --   208 o    0.830
   211   8 o    1.858 --   213 h    0.814   212 h    0.790
   212   1 h    0.874 --   211 o    0.790
   213   1 h    0.880 --   211 o    0.814
   214   8 o    1.833 --   216 h    0.809   215 h    0.790
   215   1 h    0.881 --   214 o    0.790
   216   1 h    0.879 --   214 o    0.809
   217   8 o    1.875 --   219 h    0.830   218 h    0.822
   218   1 h    0.888 --   217 o    0.822
   219   1 h    0.879 --   217 o    0.830
   220   8 o    1.821 --   221 h    0.890   222 h    0.846
   221   1 h    0.896 --   220 o    0.890
   222   1 h    0.886 --   220 o    0.846
   223   8 o    1.850 --   225 h    0.843   224 h    0.838
   224   1 h    0.889 --   223 o    0.838
   225   1 h    0.893 --   223 o    0.843
   226   8 o    1.894 --   228 h    0.823   227 h    0.811
   227   1 h    0.876 --   226 o    0.811
   228   1 h    0.887 --   226 o    0.823
   229   8 o    1.882 --   231 h    0.849   230 h    0.795
   230   1 h    0.874 --   229 o    0.795
   231   1 h    0.894 --   229 o    0.849
   232   8 o    1.823 --   234 h    0.880   233 h    0.802
   233   1 h    0.875 --   232 o    0.802
   234   1 h    0.899 --   232 o    0.880
   235   8 o    1.831 --   236 h    0.836   237 h    0.815
   236   1 h    0.891 --   235 o    0.836
   237   1 h    0.874 --   235 o    0.815
   238   8 o    1.890 --   240 h    0.831   239 h    0.820
   239   1 h    0.876 --   238 o    0.820
   240   1 h    0.875 --   238 o    0.831
   241   8 o    1.810 --   243 h    0.855   242 h    0.852
   242   1 h    0.888 --   241 o    0.852
   243   1 h    0.887 --   241 o    0.855
   244   8 o    1.846 --   245 h    0.820   246 h    0.787
   245   1 h    0.889 --   244 o    0.820
   246   1 h    0.870 --   244 o    0.787
   247   8 o    1.829 --   248 h    0.868   249 h    0.825
   248   1 h    0.894 --   247 o    0.868
   249   1 h    0.887 --   247 o    0.825
   250   8 o    1.876 --   251 h    0.835   252 h    0.784
   251   1 h    0.888 --   250 o    0.835
   252   1 h    0.873 --   250 o    0.784
   253   8 o    1.840 --   255 h    0.858   254 h    0.833
   254   1 h    0.885 --   253 o    0.833
   255   1 h    0.888 --   253 o    0.858
   256   8 o    1.832 --   258 h    0.888   257 h    0.780
   257   1 h    0.876 --   256 o    0.780
   258   1 h    0.898 --   256 o    0.888
   259   8 o    1.886 --   260 h    0.827   261 h    0.820
   260   1 h    0.884 --   259 o    0.827
   261   1 h    0.887 --   259 o    0.820
   262   8 o    1.825 --   264 h    0.896   263 h    0.827
   263   1 h    0.884 --   262 o    0.827
   264   1 h    0.899 --   262 o    0.896
   265   8 o    1.861 --   266 h    0.854   267 h    0.815
   266   1 h    0.891 --   265 o    0.854
   267   1 h    0.888 --   265 o    0.815
   268   8 o    1.828 --   269 h    0.819   270 h    0.802
   269   1 h    0.893 --   268 o    0.819
   270   1 h    0.881 --   268 o    0.802
   271   8 o    1.864 --   273 h    0.873   272 h    0.798
   272   1 h    0.882 --   271 o    0.798
   273   1 h    0.894 --   271 o    0.873
   274   8 o    1.847 --   275 h    0.833   276 h    0.826
   275   1 h    0.896 --   274 o    0.833
   276   1 h    0.885 --   274 o    0.826
   277   8 o    1.838 --   278 h    0.865   279 h    0.817
   278   1 h    0.895 --   277 o    0.865
   279   1 h    0.874 --   277 o    0.817
   280   8 o    1.861 --   282 h    0.872   281 h    0.824
   281   1 h    0.887 --   280 o    0.824
   282   1 h    0.892 --   280 o    0.872
   283   8 o    1.889 --   285 h    0.857   284 h    0.782
   284   1 h    0.868 --   283 o    0.782
   285   1 h    0.893 --   283 o    0.857
   286   8 o    1.854 --   287 h    0.862   288 h    0.833
   287   1 h    0.890 --   286 o    0.862
   288   1 h    0.873 --   286 o    0.833
   289   8 o    1.867 --   290 h    0.885   291 h    0.852
   290   1 h    0.898 --   289 o    0.885
   291   1 h    0.888 --   289 o    0.852
   292   8 o    1.815 --   294 h    0.861   293 h    0.811
   293   1 h    0.881 --   292 o    0.811
   294   1 h    0.894 --   292 o    0.861
   295   8 o    1.837 --   297 h    0.855   296 h    0.786
   296   1 h    0.872 --   295 o    0.786
   297   1 h    0.892 --   295 o    0.855
   298   8 o    1.845 --   300 h    0.869   299 h    0.803
   299   1 h    0.878 --   298 o    0.803
   300   1 h    0.892 --   298 o    0.869
   301   8 o    1.835 --   303 h    0.906   302 h    0.819
   302   1 h    0.886 --   301 o    0.819
   303   1 h    0.908 --   301 o    0.906
   304   8 o    1.823 --   306 h    0.852   305 h    0.825
   305   1 h    0.882 --   304 o    0.825
   306   1 h    0.894 --   304 o    0.852
   307   8 o    1.897 --   308 h    0.825   309 h    0.805
   308   1 h    0.878 --   307 o    0.825
   309   1 h    0.883 --   307 o    0.805
   310   8 o    1.816 --   312 h    0.847   311 h    0.805
   311   1 h    0.880 --   310 o    0.805
   312   1 h    0.899 --   310 o    0.847
   313   8 o    1.830 --   314 h    0.867   315 h    0.804
   314   1 h    0.897 --   313 o    0.867
   315   1 h    0.868 --   313 o    0.804
   316   8 o    1.825 --   317 h    0.897   318 h    0.788
   317   1 h    0.907 --   316 o    0.897
   318   1 h    0.881 --   316 o    0.788
   319   8 o    1.830 --   321 h    0.893   320 h    0.837
   320   1 h    0.880 --   319 o    0.837
   321   1 h    0.898 --   319 o    0.893
   322   8 o    1.820 --   324 h    0.858   323 h    0.820
   323   1 h    0.884 --   322 o    0.820
   324   1 h    0.894 --   322 o    0.858
   325   8 o    1.894 --   326 h    0.825   327 h    0.793
   326   1 h    0.887 --   325 o    0.825
   327   1 h    0.876 --   325 o    0.793
   328   8 o    1.828 --   329 h    0.899   330 h    0.869
   329   1 h    0.904 --   328 o    0.899
   330   1 h    0.894 --   328 o    0.869
   331   8 o    1.832 --   332 h    0.863   333 h    0.806
   332   1 h    0.899 --   331 o    0.863
   333   1 h    0.872 --   331 o    0.806
   334   8 o    1.804 --   336 h    0.856   335 h    0.831
   335   1 h    0.883 --   334 o    0.831
   336   1 h    0.898 --   334 o    0.856
   337   8 o    1.841 --   339 h    0.848   338 h    0.800
   338   1 h    0.873 --   337 o    0.800
   339   1 h    0.892 --   337 o    0.848
   340   8 o    1.848 --   342 h    0.857   341 h    0.805
   341   1 h    0.874 --   340 o    0.805
   342   1 h    0.892 --   340 o    0.857
   343   8 o    1.892 --   344 h    0.871   345 h    0.790
   344   1 h    0.892 --   343 o    0.871
   345   1 h    0.872 --   343 o    0.790
   346   8 o    1.829 --   348 h    0.826   347 h    0.809
   347   1 h    0.886 --   346 o    0.809
   348   1 h    0.889 --   346 o    0.826
   349   8 o    1.896 --   351 h    0.820   350 h    0.791
   350   1 h    0.874 --   349 o    0.791
   351   1 h    0.891 --   349 o    0.820
   352   8 o    1.836 --   354 h    0.847   353 h    0.837
   353   1 h    0.890 --   352 o    0.837
   354   1 h    0.889 --   352 o    0.847
   355   8 o    1.823 --   356 h    0.874   357 h    0.793
   356   1 h    0.897 --   355 o    0.874
   357   1 h    0.878 --   355 o    0.793
   358   8 o    1.834 --   360 h    0.842   359 h    0.811
   359   1 h    0.875 --   358 o    0.811
   360   1 h    0.889 --   358 o    0.842
   361   8 o    1.807 --   362 h    0.877   363 h    0.850
   362   1 h    0.896 --   361 o    0.877
   363   1 h    0.887 --   361 o    0.850
   364   8 o    1.814 --   365 h    0.865   366 h    0.809
   365   1 h    0.894 --   364 o    0.865
   366   1 h    0.888 --   364 o    0.809
   367   8 o    1.827 --   369 h    0.858   368 h    0.841
   368   1 h    0.885 --   367 o    0.841
   369   1 h    0.889 --   367 o    0.858
   370   8 o    1.857 --   372 h    0.886   371 h    0.840
   371   1 h    0.874 --   370 o    0.840
   372   1 h    0.896 --   370 o    0.886
   373   8 o    1.832 --   375 h    0.901   374 h    0.814
   374   1 h    0.873 --   373 o    0.814
   375   1 h    0.905 --   373 o    0.901
   376   8 o    1.842 --   377 h    0.845   378 h    0.834
   377   1 h    0.891 --   376 o    0.845
   378   1 h    0.882 --   376 o    0.834
   379   8 o    1.833 --   380 h    0.843   381 h    0.819
   380   1 h    0.887 --   379 o    0.843
   381   1 h    0.884 --   379 o    0.819
   382   8 o    1.844 --   383 h    0.843   384 h    0.787
   383   1 h    0.893 --   382 o    0.843
   384   1 h    0.875 --   382 o    0.787
   385   8 o    1.884 --   387 h    0.803   386 h    0.792
   386   1 h    0.873 --   385 o    0.792
   387   1 h    0.889 --   385 o    0.803
   388   8 o    1.843 --   390 h    0.899   389 h    0.783
   389   1 h    0.871 --   388 o    0.783
   390   1 h    0.904 --   388 o    0.899
   391   8 o    1.835 --   393 h    0.881   392 h    0.841
   392   1 h    0.882 --   391 o    0.841
   393   1 h    0.897 --   391 o    0.881
   394   8 o    1.877 --   396 h    0.838   395 h    0.830
   395   1 h    0.879 --   394 o    0.830
   396   1 h    0.880 --   394 o    0.838
   397   8 o    1.813 --   399 h    0.823   398 h    0.820
   398   1 h    0.893 --   397 o    0.820
   399   1 h    0.889 --   397 o    0.823
   400   8 o    1.885 --   401 h    0.854   402 h    0.801
   401   1 h    0.886 --   400 o    0.854
   402   1 h    0.872 --   400 o    0.801
   403   8 o    1.859 --   405 h    0.872   404 h    0.814
   404   1 h    0.881 --   403 o    0.814
   405   1 h    0.898 --   403 o    0.872
   406   8 o    1.818 --   407 h    0.874   408 h    0.796
   407   1 h    0.897 --   406 o    0.874
   408   1 h    0.876 --   406 o    0.796
   409   8 o    1.869 --   411 h    0.826   410 h    0.799
   410   1 h    0.888 --   409 o    0.799
   411   1 h    0.888 --   409 o    0.826
   412   8 o    1.890 --   413 h    0.811   414 h    0.798
   413   1 h    0.884 --   412 o    0.811
   414   1 h    0.875 --   412 o    0.798
   415   8 o    1.843 --   416 h    0.884   417 h    0.807
   416   1 h    0.903 --   415 o    0.884
   417   1 h    0.869 --   415 o    0.807
   418   8 o    1.839 --   420 h    0.900   419 h    0.804
   419   1 h    0.874 --   418 o    0.804
   420   1 h    0.904 --   418 o    0.900
   421   8 o    1.845 --   422 h    0.897   423 h    0.825
   422   1 h    0.900 --   421 o    0.897
   423   1 h    0.880 --   421 o    0.825
   424   8 o    1.855 --   426 h    0.867   425 h    0.816
   425   1 h    0.881 --   424 o    0.816
   426   1 h    0.897 --   424 o    0.867
   427   8 o    1.835 --   429 h    0.825   428 h    0.788
   428   1 h    0.873 --   427 o    0.788
   429   1 h    0.899 --   427 o    0.825
   430   8 o    1.822 --   432 h    0.870   431 h    0.829
   431   1 h    0.887 --   430 o    0.829
   432   1 h    0.892 --   430 o    0.870
   433   8 o    1.850 --   434 h    0.893   435 h    0.769
   434   1 h    0.900 --   433 o    0.893
   435   1 h    0.871 --   433 o    0.769
   436   8 o    1.822 --   438 h    0.895   437 h    0.802
   437   1 h    0.878 --   436 o    0.802
   438   1 h    0.901 --   436 o    0.895
   439   8 o    1.840 --   440 h    0.838   441 h    0.831
   440   1 h    0.886 --   439 o    0.838
   441   1 h    0.888 --   439 o    0.831
   442   8 o    1.824 --   443 h    0.859   444 h    0.803
   443   1 h    0.892 --   442 o    0.859
   444   1 h    0.879 --   442 o    0.803
   445   8 o    1.848 --   447 h    0.896   446 h    0.799
   446   1 h    0.873 --   445 o    0.799
   447   1 h    0.902 --   445 o    0.896
   448   8 o    1.839 --   449 h    0.893   450 h    0.831
   449   1 h    0.907 --   448 o    0.893
   450   1 h    0.889 --   448 o    0.831
   451   8 o    1.864 --   452 h    0.831   453 h    0.783
   452   1 h    0.882 --   451 o    0.831
   453   1 h    0.868 --   451 o    0.783
   454   8 o    1.849 --   456 h    0.885   455 h    0.807
   455   1 h    0.873 --   454 o    0.807
   456   1 h    0.902 --   454 o    0.885
   457   8 o    1.839 --   458 h    0.862   459 h    0.837
   458   1 h    0.886 --   457 o    0.862
   459   1 h    0.883 --   457 o    0.837
   460   8 o    1.833 --   462 h    0.883   461 h    0.833
   461   1 h    0.883 --   460 o    0.833
   462   1 h    0.896 --   460 o    0.883
   463   8 o    1.816 --   464 h    0.865   465 h    0.834
   464   1 h    0.895 --   463 o    0.865
   465   1 h    0.886 --   463 o    0.834
   466   8 o    1.810 --   467 h    0.863   468 h    0.827
   467   1 h    0.892 --   466 o    0.863
   468   1 h    0.881 --   466 o    0.827
   469   8 o    1.843 --   470 h    0.846   471 h    0.836
   470   1 h    0.886 --   469 o    0.846
   471   1 h    0.886 --   469 o    0.836
   472   8 o    1.845 --   473 h    0.834   474 h    0.811
   473   1 h    0.890 --   472 o    0.834
   474   1 h    0.881 --   472 o    0.811
   475   8 o    1.851 --   477 h    0.871   476 h    0.819
   476   1 h    0.880 --   475 o    0.819
   477   1 h    0.890 --   475 o    0.871
   478   8 o    1.843 --   479 h    0.842   480 h    0.813
   479   1 h    0.889 --   478 o    0.842
   480   1 h    0.875 --   478 o    0.813
   481   8 o    1.816 --   482 h    0.885   483 h    0.820
   482   1 h    0.897 --   481 o    0.885
   483   1 h    0.874 --   481 o    0.820
   484   8 o    1.880 --   485 h    0.843   486 h    0.796
   485   1 h    0.880 --   484 o    0.843
   486   1 h    0.870 --   484 o    0.796
   487   8 o    1.881 --   489 h    0.819   488 h    0.811
   488   1 h    0.888 --   487 o    0.811
   489   1 h    0.886 --   487 o    0.819
   490   8 o    1.876 --   491 h    0.856   492 h    0.847
   491   1 h    0.893 --   490 o    0.856
   492   1 h    0.881 --   490 o    0.847
   493   8 o    1.829 --   495 h    0.864   494 h    0.853
   494   1 h    0.884 --   493 o    0.853
   495   1 h    0.892 --   493 o    0.864
   496   8 o    1.837 --   497 h    0.847   498 h    0.829
   497   1 h    0.881 --   496 o    0.847
   498   1 h    0.886 --   496 o    0.829
   499   8 o    1.840 --   501 h    0.795   500 h    0.780
   500   1 h    0.871 --   499 o    0.780
   501   1 h    0.880 --   499 o    0.795
   502   8 o    1.852 --   503 h    0.897   504 h    0.802
   503   1 h    0.901 --   502 o    0.897
   504   1 h    0.874 --   502 o    0.802
   505   8 o    1.896 --   506 h    0.855   507 h    0.813
   506   1 h    0.893 --   505 o    0.855
   507   1 h    0.884 --   505 o    0.813
   508   8 o    1.831 --   509 h    0.888   510 h    0.799
   509   1 h    0.900 --   508 o    0.888
   510   1 h    0.878 --   508 o    0.799
   511   8 o    1.843 --   512 h    0.841   513 h    0.822
   512   1 h    0.891 --   511 o    0.841
   513   1 h    0.888 --   511 o    0.822
   514   8 o    1.858 --   516 h    0.900   515 h    0.783
   515   1 h    0.873 --   514 o    0.783
   516   1 h    0.903 --   514 o    0.900
   517   8 o    1.837 --   518 h    0.869   519 h    0.799
   518   1 h    0.895 --   517 o    0.869
   519   1 h    0.877 --   517 o    0.799
   520   8 o    1.868 --   522 h    0.856   521 h    0.829
   521   1 h    0.875 --   520 o    0.829
   522   1 h    0.890 --   520 o    0.856
   523   8 o    1.818 --   524 h    0.855   525 h    0.852
   524   1 h    0.883 --   523 o    0.855
   525   1 h    0.892 --   523 o    0.852
   526   8 o    1.834 --   527 h    0.889   528 h    0.828
   527   1 h    0.902 --   526 o    0.889
   528   1 h    0.888 --   526 o    0.828
   529   8 o    1.847 --   531 h    0.893   530 h    0.852
   530   1 h    0.886 --   529 o    0.852
   531   1 h    0.902 --   529 o    0.893
 ---------------------------------------------------------------------------

Topologies differ in total number of bonds
Writing topology from bond orders to xtbtopo.mol

molecular dipole:
                 x           y           z       tot (Debye)
 q only:       -1.420      -2.845       0.120
   full:       -2.369      -3.917      -0.490      11.701
molecular quadrupole (traceless):
                xx          xy          yy          xz          yz          zz
 q only:      141.089      49.449     -77.825       3.991       4.675     -63.264
  q+dip:      183.441      61.873    -103.113       7.427       3.664     -80.327
   full:      185.192      62.341    -103.067       6.528       3.392     -82.125


           -------------------------------------------------
          | TOTAL ENERGY             -901.399196874571 Eh   |
          | GRADIENT NORM               0.105148894348 Eh/α |
          | HOMO-LUMO GAP               7.452333636510 eV   |
           -------------------------------------------------

------------------------------------------------------------------------
 * finished run on 2022/11/17 at 06:54:57.138     
------------------------------------------------------------------------
 total:
 * wall-time:     0 d,  0 h,  0 min,  7.964 sec
 *  cpu-time:     0 d,  0 h,  0 min, 13.182 sec
 * ratio c/w:     1.655 speedup
 SCF:
 * wall-time:     0 d,  0 h,  0 min,  7.446 sec
 *  cpu-time:     0 d,  0 h,  0 min, 12.190 sec
 * ratio c/w:     1.637 speedup

