      -----------------------------------------------------------      
     |                   =====================                   |     
     |                           x T B                           |     
     |                   =====================                   |     
     |                         S. Grimme                         |     
     |          Mulliken Center for Theoretical Chemistry        |     
     |                    University of Bonn                     |     
      -----------------------------------------------------------      

   * xtb version 6.5.1 (579679a) compiled by 'ehlert@majestix' on 2022-07-11

   xtb is free software: you can redistribute it and/or modify it under
   the terms of the GNU Lesser General Public License as published by
   the Free Software Foundation, either version 3 of the License, or
   (at your option) any later version.
   
   xtb is distributed in the hope that it will be useful,
   but WITHOUT ANY WARRANTY; without even the implied warranty of
   MERCHANTABILITY or FITNESS FOR A PARTICULAR PURPOSE.  See the
   GNU Lesser General Public License for more details.
   
   Cite this work as:
   * C. Bannwarth, E. Caldeweyher, S. Ehlert, A. Hansen, P. Pracht,
     J. Seibert, S. Spicher, S. Grimme, WIREs Comput. Mol. Sci., 2020, 11,
     e01493. DOI: 10.1002/wcms.1493
   
   for GFN2-xTB:
   * C. Bannwarth, S. Ehlert and S. Grimme., J. Chem. Theory Comput., 2019,
     15, 1652-1671. DOI: 10.1021/acs.jctc.8b01176
   for GFN1-xTB:
   * S. Grimme, C. Bannwarth, P. Shushkov, J. Chem. Theory Comput., 2017,
     13, 1989-2009. DOI: 10.1021/acs.jctc.7b00118
   for GFN0-xTB:
   * P. Pracht, E. Caldeweyher, S. Ehlert, S. Grimme, ChemRxiv, 2019, preprint.
     DOI: 10.26434/chemrxiv.8326202.v1
   for GFN-FF:
   * S. Spicher and S. Grimme, Angew. Chem. Int. Ed., 2020, 59, 15665-15673.
     DOI: 10.1002/anie.202004239
   
   for ALPB and GBSA implicit solvation:
   * S. Ehlert, M. Stahn, S. Spicher, S. Grimme, J. Chem. Theory Comput.,
     2021, 17, 4250-4261. DOI: 10.1021/acs.jctc.1c00471
   
   for DFT-D4:
   * E. Caldeweyher, C. Bannwarth and S. Grimme, J. Chem. Phys., 2017,
     147, 034112. DOI: 10.1063/1.4993215
   * E. Caldeweyher, S. Ehlert, A. Hansen, H. Neugebauer, S. Spicher,
     C. Bannwarth and S. Grimme, J. Chem. Phys., 2019, 150, 154122.
     DOI: 10.1063/1.5090222
   * E. Caldeweyher, J.-M. Mewes, S. Ehlert and S. Grimme, Phys. Chem. Chem. Phys.
     2020, 22, 8499-8512. DOI: 10.1039/D0CP00502A
   
   for sTDA-xTB:
   * S. Grimme and C. Bannwarth, J. Chem. Phys., 2016, 145, 054103.
     DOI: 10.1063/1.4959605
   
   in the mass-spec context:
   * V. Asgeirsson, C. Bauer and S. Grimme, Chem. Sci., 2017, 8, 4879.
     DOI: 10.1039/c7sc00601b
   * J. Koopman and S. Grimme, ACS Omega 2019, 4, 12, 15120-15133.
     DOI: 10.1021/acsomega.9b02011
   
   for metadynamics refer to:
   * S. Grimme, J. Chem. Theory Comput., 2019, 155, 2847-2862
     DOI: 10.1021/acs.jctc.9b00143
   
   for SPH calculations refer to:
   * S. Spicher and S. Grimme, J. Chem. Theory Comput., 2021, 17, 1701-1714
     DOI: 10.1021/acs.jctc.0c01306
   
   with help from (in alphabetical order)
   P. Atkinson, C. Bannwarth, F. Bohle, G. Brandenburg, E. Caldeweyher
   M. Checinski, S. Dohm, S. Ehlert, S. Ehrlich, I. Gerasimov, C. Hölzer
   A. Katbashev, J. Koopman, C. Lavigne, S. Lehtola, F. März, M. Müller,
   F. Musil, H. Neugebauer, J. Pisarek, C. Plett, P. Pracht, F. Pultar,
   J. Seibert, P. Shushkov, S. Spicher, M. Stahn, M. Steiner, T. Strunk,
   J. Stückrath, T. Rose, and J. Unsleber
   
 * started run on 2022/11/17 at 06:54:59.738     

           -------------------------------------------------
          |                Calculation Setup                |
           -------------------------------------------------

          program call               : xtb solvent_cluster.coord --gfn2 --sp --lmo --chrg 0
          hostname                   : cn0363
          coordinate file            : solvent_cluster.coord
          omp threads                :                     2

   ID    Z sym.   atoms
    1    8 o      1, 4, 7, 10, 13, 16, 19, 22, 25, 28, 31, 34, 37, 40, 43,
                  46, 49, 52, 55, 58, 61, 64, 67, 70, 73, 76, 79, 82, 85, 88,
                  91, 94, 97, 100, 103, 106, 109, 112, 115, 118, 121, 124,
                  127, 130, 133, 136, 139, 142, 145, 148, 151, 154, 157, 160,
                  163, 166, 169, 172, 175, 178, 181, 184, 187, 190, 193, 196,
                  199, 202, 205, 208, 211, 214, 217, 220, 223, 226, 229, 232,
                  235, 238, 241, 244, 247, 250, 253, 256, 259, 262, 265, 268,
                  271, 274, 277, 280, 283, 286, 289, 292, 295, 298, 301, 304,
                  307, 310, 313, 316, 319, 322, 325, 328, 331, 334, 337, 340,
                  343, 346, 349, 352, 355, 358, 361, 364, 367, 370, 373, 376,
                  379, 382, 385, 388, 391, 394, 397, 400, 403, 406, 409, 412,
                  415, 418, 421, 424, 427, 430, 433, 436, 439, 442, 445, 448,
                  451, 454, 457, 460, 463, 466, 469, 472, 475, 478, 481, 484,
                  487, 490, 493, 496, 499, 502, 505, 508, 511, 514, 517, 520,
                  523, 526, 529
    2    1 h      2, 3, 5, 6, 8, 9, 11, 12, 14, 15, 17, 18, 20, 21, 23, 24,
                  26, 27, 29, 30, 32, 33, 35, 36, 38, 39, 41, 42, 44, 45, 47,
                  48, 50, 51, 53, 54, 56, 57, 59, 60, 62, 63, 65, 66, 68, 69,
                  71, 72, 74, 75, 77, 78, 80, 81, 83, 84, 86, 87, 89, 90, 92,
                  93, 95, 96, 98, 99, 101, 102, 104, 105, 107, 108, 110, 111,
                  113, 114, 116, 117, 119, 120, 122, 123, 125, 126, 128, 129,
                  131, 132, 134, 135, 137, 138, 140, 141, 143, 144, 146, 147,
                  149, 150, 152, 153, 155, 156, 158, 159, 161, 162, 164, 165,
                  167, 168, 170, 171, 173, 174, 176, 177, 179, 180, 182, 183,
                  185, 186, 188, 189, 191, 192, 194, 195, 197, 198, 200, 201,
                  203, 204, 206, 207, 209, 210, 212, 213, 215, 216, 218, 219,
                  221, 222, 224, 225, 227, 228, 230, 231, 233, 234, 236, 237,
                  239, 240, 242, 243, 245, 246, 248, 249, 251, 252, 254, 255,
                  257, 258, 260, 261, 263, 264, 266, 267, 269, 270, 272, 273,
                  275, 276, 278, 279, 281, 282, 284, 285, 287, 288, 290, 291,
                  293, 294, 296, 297, 299, 300, 302, 303, 305, 306, 308, 309,
                  311, 312, 314, 315, 317, 318, 320, 321, 323, 324, 326, 327,
                  329, 330, 332, 333, 335, 336, 338, 339, 341, 342, 344, 345,
                  347, 348, 350, 351, 353, 354, 356, 357, 359, 360, 362, 363,
                  365, 366, 368, 369, 371, 372, 374, 375, 377, 378, 380, 381,
                  383, 384, 386, 387, 389, 390, 392, 393, 395, 396, 398, 399,
                  401, 402, 404, 405, 407, 408, 410, 411, 413, 414, 416, 417,
                  419, 420, 422, 423, 425, 426, 428, 429, 431, 432, 434, 435,
                  437, 438, 440, 441, 443, 444, 446, 447, 449, 450, 452, 453,
                  455, 456, 458, 459, 461, 462, 464, 465, 467, 468, 470, 471,
                  473, 474, 476, 477, 479, 480, 482, 483, 485, 486, 488, 489,
                  491, 492, 494, 495, 497, 498, 500, 501, 503, 504, 506, 507,
                  509, 510, 512, 513, 515, 516, 518, 519, 521, 522, 524, 525,
                  527, 528, 530, 531

molecular fragmentation (1/2 indicates fragments):
111222222222222222222222222222222222222222222222222222222222222222222222
222222222222222222222222222222222222222222222222222222222222222222222222
222222222222222222222222222222222222222222222222222222222222222222222222
222222222222222222222222222222222222222222222222222222222222222222222222
222222222222222222222222222222222222222222222222222222222222222222222222
222222222222222222222222222222222222222222222222222222222222222222222222
222222222222222222222222222222222222222222222222222222222222222222222222
222222222222222222222222222
# atoms in fragment 1/2:     3   528
 fragment masses (1/2) :       18.02     3170.69
CMA distance (Bohr)    :   4.321
constraining FC (au)   :  0.0500

           -------------------------------------------------
          |                 G F N 2 - x T B                 |
           -------------------------------------------------

        Reference                      10.1021/acs.jctc.8b01176
      * Hamiltonian:
        H0-scaling (s, p, d)           1.850000    2.230000    2.230000
        zeta-weighting                 0.500000
      * Dispersion:
        s8                             2.700000
        a1                             0.520000
        a2                             5.000000
        s9                             5.000000
      * Repulsion:
        kExp                           1.500000    1.000000
        rExp                           1.000000
      * Coulomb:
        alpha                          2.000000
        third order                    shell-resolved
        anisotropic                    true
        a3                             3.000000
        a5                             4.000000
        cn-shift                       1.200000
        cn-exp                         4.000000
        max-rad                        5.000000


          ...................................................
          :                      SETUP                      :
          :.................................................:
          :  # basis functions                1062          :
          :  # atomic orbitals                1062          :
          :  # shells                          708          :
          :  # electrons                      1416          :
          :  max. iterations                   250          :
          :  Hamiltonian                  GFN2-xTB          :
          :  restarted?                      false          :
          :  GBSA solvation                  false          :
          :  PC potential                    false          :
          :  electronic temp.          300.0000000     K    :
          :  accuracy                    1.0000000          :
          :  -> integral cutoff          0.2500000E+02      :
          :  -> integral neglect         0.1000000E-07      :
          :  -> SCF convergence          0.1000000E-05 Eh   :
          :  -> wf. convergence          0.1000000E-03 e    :
          :  Broyden damping             0.4000000          :
          ...................................................

 iter      E             dE          RMSdq      gap      omega  full diag
   1   -906.5632489 -0.906563E+03  0.406E+00    8.74       0.0  T
   2   -906.6199122 -0.566633E-01  0.241E+00    7.87       1.0  T
   3   -906.6423574 -0.224452E-01  0.214E-01    6.51       1.0  T
   4   -906.6463003 -0.394287E-02  0.466E-02    6.95       1.0  T
   5   -906.6463684 -0.681134E-04  0.314E-02    6.88       1.0  T
   6   -906.6463982 -0.298297E-04  0.447E-03    6.91       1.0  T
   7   -906.6464002 -0.193151E-05  0.765E-04    6.91       5.7  T
   8   -906.6464002 -0.219870E-07  0.393E-04    6.91      11.0  T
   9   -906.6464002 -0.107057E-07  0.685E-05    6.91      63.4  T

   *** convergence criteria satisfied after 9 iterations ***

         #    Occupation            Energy/Eh            Energy/eV
      -------------------------------------------------------------
         1        2.0000           -0.6952297             -18.9182
       ...           ...                  ...                  ...
       702        2.0000           -0.3616027              -9.8397
       703        2.0000           -0.3593804              -9.7792
       704        2.0000           -0.3561560              -9.6915
       705        2.0000           -0.3497089              -9.5161
       706        2.0000           -0.3425779              -9.3220
       707        2.0000           -0.3337444              -9.0816
       708        2.0000           -0.3316903              -9.0258 (HOMO)
       709                         -0.0778642              -2.1188 (LUMO)
       710                         -0.0683512              -1.8599
       711                         -0.0545175              -1.4835
       712                         -0.0467107              -1.2711
       713                         -0.0380626              -1.0357
       ...                                ...                  ...
      1062                          0.4845856              13.1862
      -------------------------------------------------------------
                  HL-Gap            0.2538260 Eh            6.9070 eV
             Fermi-level           -0.2047772 Eh           -5.5723 eV
 
 localization/xTB-IFF output generation
 averaging CT terms over            2  occ. levels
 averaging CT terms over            2  virt. levels
 dipole moment from electron density (au)
     X       Y       Z   
  -2.2411  -3.5532  -0.5253  total (Debye):   10.761
cpu  time for init local    0.41 s
wall time for init local    0.20 s
 doing rotations ...
 initialization of trafo matrix to unity

 converged in     16 iterations, threshold :   0.99994073D-06
 doing transformations ...
 lmo centers(Z=2) and atoms on file <lmocent.coord>
 LMO Fii/eV  ncent    charge center   contributions...
    1 LP   *******   0.00   5.73204  -3.92854   8.45409  109O :  8.12   67O :  4.71  526O :  4.60   31O :  4.44  265O :  3.85   76O :  3.62   10O :  3.62   40O :  3.51   16O :  3.24  100O :  3.07  205O :  3.04  394O :  3.00
  292O :  2.96  415O :  2.81  232O :  2.68  172O :  2.64   25O :  2.59  226O :  2.57  217O :  2.54  268O :  2.54  481O :  2.43  238O :  2.41  508O :  2.36  472O :  2.35
  463O :  2.35  343O :  2.33  511O :  2.32  157O :  2.31  469O :  2.30   19O :  2.24  397O :  2.20  325O :  2.03   58O :  2.02  310O :  2.01  475O :  1.98  190O :  1.97
  505O :  1.96  187O :  1.93  163O :  1.91  223O :  1.88  529O :  1.88  484O :  1.85  487O :  1.75  340O :  1.74  151O :  1.74   46O :  1.74  175O :  1.73   37O :  1.72
  418O :  1.71   22O :  1.66  445O :  1.58  244O :  1.58  148O :  1.57   97O :  1.46   73O :  1.45  499O :  1.45  460O :  1.44  277O :  1.37    4O :  1.37  193O :  1.32
  121O :  1.32   70O :  1.32  259O :  1.31   28O :  1.29  527H :  1.25  451O :  1.24  307O :  1.20  271O :  1.18  439O :  1.15   43O :  1.14  202O :  1.14  379O :  1.13
  490O :  1.13  409O :  1.09  208O :  1.05  382O :  1.04  112O :  1.04  319O :  1.02  229O :  1.02  367O :  0.99  247O :  0.98  352O :  0.97  250O :  0.95  181O :  0.95
  220O :  0.94  412O :  0.90   94O :  0.89  400O :  0.89  166O :  0.86  133O :  0.84  391O :  0.83  337O :  0.79  301O :  0.77  199O :  0.77  370O :  0.76  139O :  0.76
  103O :  0.76  286O :  0.74   52O :  0.71  118O :  0.66  430O :  0.65  289O :  0.64  433O :  0.64  502O :  0.64   79O :  0.63   64O :  0.63  406O :  0.62  457O :  0.62
  283O :  0.62  196O :  0.62  376O :  0.61    7O :  0.61   33H :  0.60  349O :  0.60  298O :  0.60   59H :  0.60  295O :  0.60  442O :  0.59  304O :  0.59  395H :  0.59
  388O :  0.58   34O :  0.58   85O :  0.57  334O :  0.56   88O :  0.56   55O :  0.56  274O :  0.54  466O :  0.54  106O :  0.53  160O :  0.52  136O :  0.52  214O :  0.51
  361O :  0.50  253O :  0.50  235O :  0.49  448O :  0.49  280O :  0.47  322O :  0.46  496O :  0.45  478O :  0.45  373O :  0.44  241O :  0.43  142O :  0.43  403O :  0.43
  398H :  0.42   78H :  0.42  436O :  0.41  358O :  0.40  115O :  0.40  421O :  0.40  514O :  0.40  346O :  0.39  355O :  0.37  184O :  0.37  316O :  0.34  483H :  0.33
  154O :  0.33  313O :  0.33   39H :  0.32  476H :  0.31  233H :  0.31  471H :  0.30    1O :  0.29  517O :  0.29   13O :  0.28  523O :  0.28   74H :  0.27   61O :  0.27
  331O :  0.27  470H :  0.26  520O :  0.25  269H :  0.25  169O :  0.24  122H :  0.24  211O :  0.23  145O :  0.22  252H :  0.21   91O :  0.21  493O :  0.21  392H :  0.21
  424O :  0.21  191H :  0.20   47H :  0.20  486H :  0.20  278H :  0.19  194H :  0.18  225H :  0.18  512H :  0.18  176H :  0.18  440H :  0.18  464H :  0.18  491H :  0.17
  482H :  0.17   26H :  0.17  474H :  0.16  293H :  0.16   69H :  0.15  368H :  0.15  312H :  0.14   62H :  0.14  272H :  0.14  203H :  0.14  237H :  0.14   53H :  0.14
  385O :  0.13  102H :  0.13  434H :  0.13  279H :  0.13  246H :  0.13  459H :  0.13   65H :  0.13  393H :  0.13  256O :  0.13    9H :  0.13  324H :  0.12  261H :  0.12
   72H :  0.12   49O :  0.12  135H :  0.12  427O :  0.11  510H :  0.11  216H :  0.11   48H :  0.11   57H :  0.11  353H :  0.11   11H :  0.11  192H :  0.11   44H :  0.11
   68H :  0.11  444H :  0.10   51H :  0.10   80H :  0.10  127O :  0.10  150H :  0.10  231H :  0.10   82O :  0.10  212H :  0.10  531H :  0.10   87H :  0.09  245H :  0.09
  200H :  0.09  318H :  0.09  454O :  0.09  204H :  0.09  101H :  0.09  167H :  0.08  354H :  0.08  372H :  0.08  218H :  0.08  248H :  0.08  396H :  0.08    6H :  0.08
  300H :  0.08  302H :  0.08  328O :  0.08  525H :  0.08  351H :  0.07  234H :  0.07  206H :  0.07
    2 LP   *******   0.00  -5.25037  -0.47410   2.15865  526O :  6.63  109O :  4.79   67O :  4.56   31O :  4.29  265O :  3.72   76O :  3.50   10O :  3.50   40O :  3.39   16O :  3.13  100O :  2.97  205O :  2.93  394O :  2.90
  292O :  2.86  415O :  2.72  232O :  2.60  172O :  2.56  527H :  2.50   25O :  2.50  226O :  2.49  217O :  2.46  268O :  2.45  481O :  2.35  238O :  2.33  508O :  2.28
  472O :  2.27  463O :  2.27  343O :  2.25  511O :  2.24  157O :  2.24  469O :  2.23   19O :  2.18  397O :  2.13  325O :  1.96   58O :  1.95  310O :  1.94  475O :  1.91
  505O :  1.91  190O :  1.90  187O :  1.87  163O :  1.84  529O :  1.83  223O :  1.82  484O :  1.79  487O :  1.69  340O :  1.69  151O :  1.68   46O :  1.68  175O :  1.67
   37O :  1.67  418O :  1.66   22O :  1.61  244O :  1.53  445O :  1.53  148O :  1.52  499O :  1.43   73O :  1.41  460O :  1.40   97O :  1.39  277O :  1.32    4O :  1.32
  121O :  1.28  193O :  1.28   70O :  1.27  259O :  1.26   28O :  1.25  451O :  1.20  307O :  1.16  271O :  1.14  439O :  1.11   43O :  1.10  202O :  1.10  379O :  1.09
  490O :  1.09  409O :  1.06  382O :  1.01  112O :  1.00  208O :  1.00  319O :  0.99  229O :  0.99  367O :  0.96  247O :  0.95  352O :  0.94  250O :  0.92  181O :  0.92
  220O :  0.91  412O :  0.87   94O :  0.86  400O :  0.86  166O :  0.83  133O :  0.81  391O :  0.80  337O :  0.77  103O :  0.76  301O :  0.75  199O :  0.74  370O :  0.74
  139O :  0.74  286O :  0.71   52O :  0.68  118O :  0.64  430O :  0.63  289O :  0.62   79O :  0.62  433O :  0.62  502O :  0.61   64O :  0.61  406O :  0.60  457O :  0.60
  283O :  0.60  196O :  0.60   33H :  0.59  376O :  0.59    7O :  0.59  298O :  0.58  349O :  0.58  295O :  0.58  442O :  0.58   59H :  0.57  304O :  0.57  395H :  0.57
  388O :  0.56   34O :  0.56   85O :  0.56   88O :  0.54  334O :  0.54   55O :  0.54  274O :  0.53  466O :  0.52  106O :  0.51  160O :  0.50  136O :  0.50  214O :  0.50
  361O :  0.49  253O :  0.48  235O :  0.47  448O :  0.47  280O :  0.45  322O :  0.44  496O :  0.44  478O :  0.43  373O :  0.42  241O :  0.42  142O :  0.41  403O :  0.41
  398H :  0.41   78H :  0.40  436O :  0.40  358O :  0.39  115O :  0.39  421O :  0.38  514O :  0.38  346O :  0.38  355O :  0.36  184O :  0.36  316O :  0.33  483H :  0.32
  154O :  0.32  313O :  0.32   39H :  0.31  476H :  0.30  233H :  0.30  471H :  0.29    1O :  0.29  517O :  0.28   13O :  0.27  523O :  0.27   74H :  0.26  331O :  0.26
   61O :  0.26  470H :  0.25  520O :  0.24  269H :  0.24  169O :  0.24  122H :  0.23  211O :  0.22  145O :  0.21  252H :  0.21   91O :  0.21  493O :  0.21  392H :  0.21
  424O :  0.20  191H :  0.20   47H :  0.19  486H :  0.19  278H :  0.19  194H :  0.18  225H :  0.18  512H :  0.17  176H :  0.17  440H :  0.17  464H :  0.17  491H :  0.17
  482H :  0.17   26H :  0.16  474H :  0.16  293H :  0.15   69H :  0.15  368H :  0.15  312H :  0.14   62H :  0.14  272H :  0.14  203H :  0.13  237H :  0.13   53H :  0.13
  385O :  0.13  102H :  0.13  434H :  0.13  279H :  0.13  246H :  0.13  459H :  0.13   65H :  0.12  393H :  0.12  256O :  0.12    9H :  0.12  324H :  0.12  261H :  0.11
   72H :  0.11   49O :  0.11  135H :  0.11  427O :  0.11  510H :  0.11  216H :  0.11   80H :  0.11   48H :  0.11   57H :  0.11  353H :  0.11   11H :  0.10  127O :  0.10
  192H :  0.10   44H :  0.10   68H :  0.10  444H :  0.10   51H :  0.10  150H :  0.09  531H :  0.09  231H :  0.09   82O :  0.09  212H :  0.09   87H :  0.09  245H :  0.09
  200H :  0.09  318H :  0.09  454O :  0.08  101H :  0.08  204H :  0.08  167H :  0.08  354H :  0.08  372H :  0.08  218H :  0.08  248H :  0.08  396H :  0.08    6H :  0.08
  300H :  0.08  302H :  0.07  328O :  0.07  351H :  0.07  234H :  0.07  525H :  0.07
    3 LP   *******   0.00  -5.80585  -0.10398  -4.99488   31O :  6.52  109O :  4.29   67O :  4.09  526O :  3.98  265O :  3.33   76O :  3.13   10O :  3.13   40O :  3.04   16O :  2.80  100O :  2.66  205O :  2.63  394O :  2.59
  292O :  2.56  415O :  2.43  232O :  2.33  172O :  2.29   25O :  2.24  226O :  2.23  217O :  2.20  268O :  2.20  481O :  2.10  238O :  2.09  343O :  2.06  508O :  2.04
  472O :  2.03  463O :  2.03  511O :  2.01  157O :  2.00  469O :  2.00   19O :  1.94  397O :  1.90  325O :  1.76   58O :  1.75  310O :  1.74  475O :  1.71  505O :  1.71
  190O :  1.70  187O :  1.67  163O :  1.65  529O :  1.63  223O :  1.63  484O :  1.60  487O :  1.52  340O :  1.51  151O :  1.51   46O :  1.51  175O :  1.50   37O :  1.49
  418O :  1.48   22O :  1.44  244O :  1.37  445O :  1.37  148O :  1.36  499O :  1.28   97O :  1.26   73O :  1.26  460O :  1.25  277O :  1.18    4O :  1.18  121O :  1.15
  193O :  1.15   70O :  1.14  259O :  1.13   28O :  1.12  527H :  1.09  451O :  1.08  307O :  1.04  271O :  1.02  439O :  0.99   43O :  0.99  202O :  0.99  490O :  0.98
  379O :  0.98  409O :  0.94  382O :  0.90  208O :  0.90  112O :  0.90  319O :  0.88  229O :  0.88  367O :  0.86  247O :  0.85  352O :  0.84  250O :  0.82  181O :  0.82
  220O :  0.81  412O :  0.78   94O :  0.77  400O :  0.76  166O :  0.74  133O :  0.72  391O :  0.72  337O :  0.69  301O :  0.67  103O :  0.67  199O :  0.67  370O :  0.66
  139O :  0.66  286O :  0.64   52O :  0.61  118O :  0.58  430O :  0.56  289O :  0.55  433O :  0.55  502O :  0.55   79O :  0.55   64O :  0.54  406O :  0.54  457O :  0.54
  283O :  0.54  196O :  0.53  376O :  0.53    7O :  0.52  298O :  0.52  349O :  0.52  295O :  0.52  442O :  0.52   59H :  0.51  395H :  0.51  304O :  0.51  388O :  0.50
   34O :  0.50   85O :  0.50   88O :  0.49  334O :  0.48   55O :  0.48  274O :  0.47  466O :  0.47  106O :  0.46  160O :  0.45  136O :  0.45  214O :  0.45   33H :  0.44
  361O :  0.44  253O :  0.43  235O :  0.42  448O :  0.42  280O :  0.40  322O :  0.40  496O :  0.39  478O :  0.39  373O :  0.38  241O :  0.37  142O :  0.37  403O :  0.37
  398H :  0.36   78H :  0.36  436O :  0.35  115O :  0.35  358O :  0.35  421O :  0.34  514O :  0.34  346O :  0.34  355O :  0.32  184O :  0.32  316O :  0.29  483H :  0.29
  154O :  0.29  313O :  0.28   39H :  0.28  476H :  0.27  233H :  0.27  471H :  0.26    1O :  0.25  517O :  0.25   13O :  0.24  523O :  0.24   74H :  0.23  331O :  0.23
   61O :  0.23  470H :  0.22  520O :  0.22  269H :  0.21  169O :  0.21  122H :  0.21  211O :  0.20  145O :  0.19  252H :  0.19   91O :  0.19  493O :  0.19  392H :  0.18
  424O :  0.18   51H :  0.18  191H :  0.18   47H :  0.17  486H :  0.17  278H :  0.17  194H :  0.16  225H :  0.16  512H :  0.16  440H :  0.15  176H :  0.15  464H :  0.15
  491H :  0.15  482H :  0.15   26H :  0.15  474H :  0.14  293H :  0.14   69H :  0.13  368H :  0.13  312H :  0.12   62H :  0.12   49O :  0.12  272H :  0.12  203H :  0.12
  237H :  0.12   53H :  0.12  385O :  0.12  102H :  0.11  434H :  0.11  279H :  0.11  246H :  0.11  459H :  0.11  393H :  0.11  256O :  0.11   65H :  0.11    9H :  0.11
  324H :  0.11  261H :  0.10   72H :  0.10  135H :  0.10  427O :  0.10  510H :  0.10  216H :  0.10   48H :  0.09   57H :  0.09  353H :  0.09   11H :  0.09  127O :  0.09
  192H :  0.09   68H :  0.09  444H :  0.09   80H :  0.09  150H :  0.08  231H :  0.08  531H :  0.08   82O :  0.08  212H :  0.08   87H :  0.08  245H :  0.08  200H :  0.08
   44H :  0.08  318H :  0.08  454O :  0.08  204H :  0.07  101H :  0.07  167H :  0.07  354H :  0.07  372H :  0.07  218H :  0.07  248H :  0.07
    4 LP   *******   0.00   0.27267  -7.77487  -1.61131  100O :  4.64  109O :  3.53   67O :  3.37  526O :  3.29   31O :  3.16  265O :  2.75   10O :  2.58   76O :  2.58   40O :  2.50   16O :  2.35  205O :  2.17  394O :  2.14
  292O :  2.11  415O :  2.00  232O :  1.91  172O :  1.89   25O :  1.87  226O :  1.83  217O :  1.82  268O :  1.81  481O :  1.73  238O :  1.72  508O :  1.68  472O :  1.68
  463O :  1.68  343O :  1.66  511O :  1.66  157O :  1.65  469O :  1.64   19O :  1.60  397O :  1.57  325O :  1.45   58O :  1.44  310O :  1.43  475O :  1.41  505O :  1.41
  190O :  1.40  187O :  1.38  163O :  1.36  223O :  1.34  529O :  1.34  484O :  1.32  487O :  1.25  340O :  1.24  151O :  1.24   46O :  1.24  175O :  1.23   37O :  1.23
  418O :  1.22   22O :  1.18  244O :  1.13  445O :  1.13  148O :  1.12  499O :  1.06   97O :  1.04   73O :  1.03  460O :  1.03    4O :  0.98  277O :  0.98  121O :  0.95
  193O :  0.94   70O :  0.94  259O :  0.93   28O :  0.92  527H :  0.89  451O :  0.89  307O :  0.86  271O :  0.84  439O :  0.82   43O :  0.82  202O :  0.81  379O :  0.81
  490O :  0.80  409O :  0.78  208O :  0.75  382O :  0.74  112O :  0.74  319O :  0.73  229O :  0.73  367O :  0.71  247O :  0.70  352O :  0.70  250O :  0.68  181O :  0.68
  220O :  0.67  412O :  0.64   94O :  0.64  400O :  0.63  166O :  0.61  133O :  0.60  391O :  0.59  337O :  0.57  301O :  0.55  103O :  0.55  199O :  0.55  370O :  0.55
  139O :  0.54  286O :  0.53   52O :  0.51  118O :  0.47  430O :  0.46  289O :  0.46  433O :  0.46  502O :  0.45   79O :  0.45   64O :  0.45  457O :  0.44  406O :  0.44
  283O :  0.44  196O :  0.44  376O :  0.43    7O :  0.43   33H :  0.43  349O :  0.43  295O :  0.43  442O :  0.42   59H :  0.42  298O :  0.42  304O :  0.42  395H :  0.42
  388O :  0.41   34O :  0.41   85O :  0.41   88O :  0.40  334O :  0.40   55O :  0.40  274O :  0.39  466O :  0.39  106O :  0.38  160O :  0.37  136O :  0.37  214O :  0.37
  361O :  0.36  253O :  0.36  235O :  0.35  448O :  0.35  280O :  0.33  322O :  0.33  496O :  0.32  478O :  0.32  373O :  0.31  241O :  0.31  142O :  0.31  403O :  0.30
  398H :  0.30   78H :  0.30  436O :  0.29  358O :  0.29  115O :  0.29  421O :  0.28  514O :  0.28  346O :  0.28  355O :  0.27  184O :  0.26  316O :  0.24  483H :  0.24
  154O :  0.24  313O :  0.23   39H :  0.23  476H :  0.22  233H :  0.22  471H :  0.21    1O :  0.21  517O :  0.21   13O :  0.20  523O :  0.20   74H :  0.19   61O :  0.19
  331O :  0.19  470H :  0.18  520O :  0.18  269H :  0.18  169O :  0.17  122H :  0.17  211O :  0.16  145O :  0.15  252H :  0.15   91O :  0.15  493O :  0.15  392H :  0.15
  424O :  0.15  191H :  0.15  486H :  0.14   47H :  0.14  278H :  0.14  194H :  0.13  225H :  0.13  512H :  0.13  440H :  0.13  176H :  0.13  464H :  0.13  491H :  0.12
  482H :  0.12   26H :  0.12  474H :  0.12  293H :  0.11   69H :  0.11  368H :  0.11  312H :  0.10  272H :  0.10   62H :  0.10  203H :  0.10  237H :  0.10  385O :  0.10
  434H :  0.09  279H :  0.09  246H :  0.09   53H :  0.09  459H :  0.09   65H :  0.09  393H :  0.09  256O :  0.09    9H :  0.09  324H :  0.09  261H :  0.08   72H :  0.08
   49O :  0.08  135H :  0.08  427O :  0.08  510H :  0.08  216H :  0.08   11H :  0.08   48H :  0.08   57H :  0.08  353H :  0.08  127O :  0.08  192H :  0.08   44H :  0.08
   68H :  0.08  444H :  0.07   51H :  0.07   80H :  0.07
    5 LP   *******   0.00   4.01057  -8.81026  -3.11283   16O :  4.62  109O :  3.49   67O :  3.33  526O :  3.25   31O :  3.13  265O :  2.72   76O :  2.55   10O :  2.55   40O :  2.48  100O :  2.20  205O :  2.14  394O :  2.11
  292O :  2.09  415O :  1.98  232O :  1.89  172O :  1.87   25O :  1.83  226O :  1.81  268O :  1.79  217O :  1.76  481O :  1.71  238O :  1.70  508O :  1.66  472O :  1.66
  463O :  1.66  343O :  1.65  511O :  1.64  157O :  1.63  469O :  1.63   19O :  1.58  397O :  1.55  325O :  1.43   58O :  1.42  310O :  1.42  475O :  1.40  505O :  1.39
  190O :  1.39  187O :  1.36  163O :  1.35  223O :  1.33  529O :  1.33  484O :  1.31  487O :  1.23  340O :  1.23  151O :  1.23   46O :  1.23  175O :  1.22   37O :  1.22
  418O :  1.21   22O :  1.17  244O :  1.11  445O :  1.11  148O :  1.11  499O :  1.05   97O :  1.03   73O :  1.02  460O :  1.02  277O :  0.96    4O :  0.96  193O :  0.93
   70O :  0.93  259O :  0.92  121O :  0.91   28O :  0.91  527H :  0.88  451O :  0.88  307O :  0.85  271O :  0.82  439O :  0.81   43O :  0.81  202O :  0.80  379O :  0.80
  490O :  0.80  409O :  0.77  208O :  0.74  382O :  0.74  112O :  0.73  319O :  0.72  229O :  0.72  367O :  0.70  247O :  0.69  352O :  0.69  250O :  0.67  181O :  0.67
  220O :  0.66  412O :  0.64   94O :  0.63  400O :  0.63  166O :  0.61  133O :  0.59  391O :  0.58  337O :  0.56  199O :  0.55  301O :  0.55  103O :  0.55  370O :  0.54
  139O :  0.54  286O :  0.52   52O :  0.50  118O :  0.47  430O :  0.46  289O :  0.45  433O :  0.45  502O :  0.45   79O :  0.45   64O :  0.44  406O :  0.44  457O :  0.44
  283O :  0.44  196O :  0.43  376O :  0.43    7O :  0.43   33H :  0.43  298O :  0.42  349O :  0.42  295O :  0.42  442O :  0.42   59H :  0.42  304O :  0.41  395H :  0.41
  388O :  0.41   34O :  0.41   85O :  0.41   88O :  0.40  334O :  0.39   55O :  0.39  274O :  0.38  466O :  0.38  160O :  0.37  136O :  0.36  106O :  0.36  214O :  0.36
  361O :  0.36  253O :  0.35  235O :  0.34  448O :  0.34  280O :  0.33  322O :  0.32  496O :  0.32  478O :  0.31  373O :  0.31  241O :  0.30  142O :  0.30  403O :  0.30
  398H :  0.30   78H :  0.29  436O :  0.29  115O :  0.29  358O :  0.29  421O :  0.28  514O :  0.28  346O :  0.28  355O :  0.26  184O :  0.26  316O :  0.24  483H :  0.24
  154O :  0.23  313O :  0.23   39H :  0.23  476H :  0.22  233H :  0.22  471H :  0.21    1O :  0.21  517O :  0.20   13O :  0.20  523O :  0.19   74H :  0.19   61O :  0.19
  331O :  0.19  470H :  0.18  520O :  0.18  269H :  0.17  169O :  0.17  122H :  0.16  211O :  0.16  145O :  0.15  252H :  0.15   91O :  0.15  493O :  0.15  392H :  0.15
  424O :  0.15  191H :  0.14  101H :  0.14   47H :  0.14  486H :  0.14  278H :  0.14  194H :  0.13  225H :  0.13  512H :  0.13  176H :  0.13  440H :  0.13  464H :  0.13
  491H :  0.12  482H :  0.12   26H :  0.12  474H :  0.12  293H :  0.11  272H :  0.11   69H :  0.11  368H :  0.11  312H :  0.10   62H :  0.10  203H :  0.10  237H :  0.10
   53H :  0.10  102H :  0.09  385O :  0.09  434H :  0.09  279H :  0.09  246H :  0.09  459H :  0.09   65H :  0.09  393H :  0.09  256O :  0.09    9H :  0.09  324H :  0.09
  261H :  0.08   72H :  0.08   49O :  0.08  135H :  0.08  427O :  0.08  510H :  0.08  216H :  0.08   48H :  0.08   57H :  0.08  353H :  0.08  127O :  0.08  192H :  0.08
   11H :  0.07   44H :  0.07   68H :  0.07  200H :  0.07  444H :  0.07   51H :  0.07   80H :  0.07
    6 LP   *******   0.01  10.73493   9.57023   3.83033  265O :  4.83  109O :  3.17   67O :  3.04  526O :  2.95   31O :  2.84   10O :  2.32   76O :  2.32   40O :  2.25   16O :  2.08  100O :  1.97  205O :  1.95  394O :  1.92
  292O :  1.90  415O :  1.80  232O :  1.72  172O :  1.70   25O :  1.66  226O :  1.65  217O :  1.63  268O :  1.62  481O :  1.56  238O :  1.55  508O :  1.51  472O :  1.51
  463O :  1.51  343O :  1.49  511O :  1.49  157O :  1.48  469O :  1.48   19O :  1.44  397O :  1.41  325O :  1.30   58O :  1.30  310O :  1.29  475O :  1.27  505O :  1.26
  190O :  1.26  187O :  1.24  163O :  1.22  223O :  1.21  529O :  1.21  484O :  1.17  487O :  1.12  340O :  1.12  151O :  1.12   46O :  1.11  175O :  1.11   37O :  1.11
  418O :  1.10   22O :  1.06  244O :  1.01  445O :  1.01  148O :  1.01  499O :  0.95   97O :  0.94   73O :  0.93  460O :  0.93  277O :  0.88    4O :  0.88  121O :  0.85
  193O :  0.85   70O :  0.84  259O :  0.84   28O :  0.83  527H :  0.80  451O :  0.80  307O :  0.77  271O :  0.76  439O :  0.74   43O :  0.73  202O :  0.73  379O :  0.72
  490O :  0.72  409O :  0.70  208O :  0.67  112O :  0.66  382O :  0.66  319O :  0.65  229O :  0.65  367O :  0.64  247O :  0.63  352O :  0.62  250O :  0.61  181O :  0.61
  220O :  0.60  412O :  0.58   94O :  0.57  400O :  0.57  166O :  0.55  133O :  0.54  391O :  0.53  337O :  0.51  301O :  0.50  103O :  0.50  199O :  0.49  370O :  0.49
  139O :  0.49  286O :  0.47   52O :  0.45  118O :  0.43  430O :  0.42  289O :  0.41  433O :  0.41  502O :  0.41   79O :  0.41   64O :  0.40  406O :  0.40  457O :  0.40
  283O :  0.40  376O :  0.39   33H :  0.39  298O :  0.39  349O :  0.38  295O :  0.38  442O :  0.38  196O :  0.38   59H :  0.38    7O :  0.38  304O :  0.38  395H :  0.38
  388O :  0.37   34O :  0.37   85O :  0.37   88O :  0.36  334O :  0.36   55O :  0.36  274O :  0.35  466O :  0.35  106O :  0.34  160O :  0.34  136O :  0.33  214O :  0.33
  361O :  0.32  253O :  0.32  235O :  0.31  448O :  0.31  280O :  0.30  322O :  0.29  496O :  0.29  478O :  0.29  373O :  0.28  241O :  0.28  142O :  0.27  403O :  0.27
  398H :  0.27   78H :  0.27  436O :  0.26  358O :  0.26  115O :  0.26  421O :  0.25  514O :  0.25  346O :  0.25  355O :  0.24  184O :  0.24  316O :  0.22  483H :  0.21
  154O :  0.21  313O :  0.21   39H :  0.21  476H :  0.20  233H :  0.20  471H :  0.19    1O :  0.19  517O :  0.19   13O :  0.18  523O :  0.18   74H :  0.17   61O :  0.17
  331O :  0.17  269H :  0.17  470H :  0.16  520O :  0.16  169O :  0.16  122H :  0.16  211O :  0.14  424O :  0.14  145O :  0.14  252H :  0.14   91O :  0.14  493O :  0.14
  392H :  0.14  191H :  0.13   47H :  0.13  486H :  0.13  278H :  0.12  194H :  0.12  225H :  0.12  512H :  0.12  176H :  0.11  440H :  0.11  464H :  0.11  491H :  0.11
  482H :  0.11   26H :  0.11  474H :  0.11  293H :  0.10  368H :  0.10   69H :  0.10  312H :  0.09   62H :  0.09  272H :  0.09  203H :  0.09  237H :  0.09   53H :  0.09
  385O :  0.09  102H :  0.09  434H :  0.08  279H :  0.08  246H :  0.08  459H :  0.08   65H :  0.08  393H :  0.08  256O :  0.08    9H :  0.08   68H :  0.08  324H :  0.08
  261H :  0.08   72H :  0.08   49O :  0.07  135H :  0.07  427O :  0.07  510H :  0.07  216H :  0.07
    7 LP   *******   0.01   8.17513   3.06106   3.75068   67O :  4.88  109O :  3.07  526O :  2.85   31O :  2.75  265O :  2.43   10O :  2.24   76O :  2.22   40O :  2.18   16O :  2.01  100O :  1.90  205O :  1.88  394O :  1.86
  292O :  1.83  415O :  1.74  232O :  1.66  172O :  1.64   25O :  1.61  226O :  1.59  217O :  1.58  268O :  1.54  481O :  1.50  238O :  1.49  508O :  1.46  472O :  1.46
  463O :  1.46  343O :  1.45  511O :  1.44  157O :  1.43  469O :  1.43   19O :  1.39  397O :  1.36  325O :  1.26   58O :  1.25  310O :  1.25  475O :  1.23  505O :  1.22
  190O :  1.22  187O :  1.20  163O :  1.18  223O :  1.17  529O :  1.17  484O :  1.13  487O :  1.08  340O :  1.08  151O :  1.08   46O :  1.08  175O :  1.07   37O :  1.07
  418O :  1.06   22O :  1.03  244O :  0.98  445O :  0.98  148O :  0.97  499O :  0.91   97O :  0.91   73O :  0.90  460O :  0.90  277O :  0.85    4O :  0.85  121O :  0.82
   70O :  0.82  193O :  0.82   28O :  0.80  259O :  0.80  527H :  0.78  451O :  0.77  307O :  0.74  271O :  0.73  439O :  0.71   43O :  0.71  202O :  0.71  379O :  0.70
  490O :  0.70  409O :  0.68  208O :  0.65  382O :  0.65  112O :  0.64  319O :  0.63  229O :  0.63  367O :  0.62  247O :  0.61  352O :  0.60  250O :  0.59  181O :  0.59
  220O :  0.58  412O :  0.56   94O :  0.55  400O :  0.55  166O :  0.53  133O :  0.52  391O :  0.51  337O :  0.49  301O :  0.48  103O :  0.48  199O :  0.48  370O :  0.47
  139O :  0.47  286O :  0.46   52O :  0.44  118O :  0.41  430O :  0.40  289O :  0.40  433O :  0.40  502O :  0.39   79O :  0.39   64O :  0.39  406O :  0.39  457O :  0.39
  283O :  0.38  196O :  0.38    7O :  0.38  376O :  0.38   33H :  0.38  349O :  0.37  298O :  0.37  295O :  0.37   59H :  0.37  442O :  0.37  304O :  0.36  395H :  0.36
  388O :  0.36   85O :  0.36   55O :  0.35   34O :  0.35  334O :  0.35   88O :  0.35  274O :  0.34  466O :  0.33  106O :  0.33  160O :  0.32  136O :  0.32  214O :  0.32
  361O :  0.31  253O :  0.31  235O :  0.30  448O :  0.30  280O :  0.29  322O :  0.28  496O :  0.28   78H :  0.28  478O :  0.28  373O :  0.27  241O :  0.27  142O :  0.27
  403O :  0.26  398H :  0.26  436O :  0.25  358O :  0.25  115O :  0.25  421O :  0.25  514O :  0.25  346O :  0.24  355O :  0.23  184O :  0.23  316O :  0.21  483H :  0.21
  154O :  0.21  313O :  0.20   39H :  0.20  476H :  0.19  233H :  0.19  471H :  0.19    1O :  0.18  517O :  0.18   13O :  0.17  523O :  0.17   74H :  0.17   61O :  0.16
  331O :  0.16  470H :  0.16  269H :  0.15  520O :  0.15  169O :  0.15  122H :  0.15   57H :  0.15  211O :  0.14  145O :  0.13  252H :  0.13   91O :  0.13  493O :  0.13
  392H :  0.13  424O :  0.13  191H :  0.13   47H :  0.12  194H :  0.12  486H :  0.12  278H :  0.12  225H :  0.11  512H :  0.11  176H :  0.11  440H :  0.11  464H :  0.11
   69H :  0.11  491H :  0.11  482H :  0.11   26H :  0.11  474H :  0.10  293H :  0.10  368H :  0.09  312H :  0.09   62H :  0.09  272H :  0.09  203H :  0.08  237H :  0.08
   53H :  0.08  385O :  0.08  102H :  0.08  434H :  0.08  279H :  0.08  246H :  0.08  459H :  0.08   65H :  0.08  393H :  0.08  256O :  0.08    9H :  0.08  324H :  0.08
   72H :  0.07  261H :  0.07   49O :  0.07  135H :  0.07
    8 LP   *******   0.01  -8.96216  -2.90458  -5.45286  394O :  4.26  109O :  2.90   67O :  2.76  526O :  2.69   31O :  2.60  265O :  2.25   76O :  2.12   10O :  2.12   40O :  2.06   16O :  1.90  100O :  1.80  205O :  1.78
  292O :  1.73  415O :  1.65  232O :  1.57  172O :  1.55   25O :  1.52  226O :  1.51  217O :  1.49  268O :  1.49  481O :  1.42  238O :  1.41  508O :  1.38  463O :  1.38
  472O :  1.38  343O :  1.36  511O :  1.36  157O :  1.35  469O :  1.35   19O :  1.31  397O :  1.29  310O :  1.19  325O :  1.19   58O :  1.18  475O :  1.16  505O :  1.15
  190O :  1.15  187O :  1.13  163O :  1.12  223O :  1.10  529O :  1.10  484O :  1.08  487O :  1.02  340O :  1.02  151O :  1.02   46O :  1.02  175O :  1.01   37O :  1.01
  418O :  1.00   22O :  0.97  244O :  0.93  445O :  0.92  148O :  0.92  499O :  0.87   97O :  0.86   73O :  0.85  460O :  0.85  277O :  0.80    4O :  0.80  121O :  0.78
  193O :  0.77   70O :  0.77  259O :  0.76   28O :  0.75  527H :  0.73  451O :  0.73  307O :  0.70  271O :  0.69  439O :  0.67   43O :  0.67  202O :  0.67  379O :  0.66
  490O :  0.66  409O :  0.64  382O :  0.61  208O :  0.61  319O :  0.60  112O :  0.60  229O :  0.60  367O :  0.58  247O :  0.58  352O :  0.57  250O :  0.56  181O :  0.55
  220O :  0.55  412O :  0.53   94O :  0.52  400O :  0.51  166O :  0.50  133O :  0.49  391O :  0.49  337O :  0.46  301O :  0.45  103O :  0.45  199O :  0.45  370O :  0.45
  139O :  0.45  286O :  0.43   52O :  0.42  118O :  0.39  430O :  0.38  433O :  0.37  289O :  0.37   79O :  0.37  502O :  0.37   64O :  0.37  406O :  0.37  457O :  0.36
  283O :  0.36  196O :  0.36   33H :  0.36  376O :  0.36    7O :  0.35  349O :  0.35  298O :  0.35  295O :  0.35  442O :  0.35   59H :  0.35  304O :  0.34  388O :  0.34
   34O :  0.34   85O :  0.34   88O :  0.33  334O :  0.33   55O :  0.33  274O :  0.32  466O :  0.32  395H :  0.32  106O :  0.31  160O :  0.31  136O :  0.30  214O :  0.30
  361O :  0.30  253O :  0.29  235O :  0.29  448O :  0.28  280O :  0.27  322O :  0.27  496O :  0.27  478O :  0.26  373O :  0.26  241O :  0.25  142O :  0.25  403O :  0.25
  398H :  0.25   78H :  0.24  436O :  0.24  115O :  0.24  358O :  0.24  421O :  0.23  514O :  0.23  346O :  0.23  355O :  0.22  184O :  0.22  316O :  0.20  483H :  0.20
  154O :  0.20  313O :  0.19   39H :  0.19  476H :  0.18  233H :  0.18  471H :  0.18    1O :  0.17  517O :  0.17   13O :  0.17   74H :  0.16  523O :  0.16   61O :  0.16
  331O :  0.16  470H :  0.15  520O :  0.15  269H :  0.14  169O :  0.14  122H :  0.14  211O :  0.13  145O :  0.13   91O :  0.13  493O :  0.13  392H :  0.12  424O :  0.12
  191H :  0.12   47H :  0.12  486H :  0.12  252H :  0.12  278H :  0.11  194H :  0.11  225H :  0.11  512H :  0.11  440H :  0.10  176H :  0.10  464H :  0.10  491H :  0.10
  482H :  0.10   26H :  0.10  474H :  0.10  293H :  0.09   69H :  0.09  368H :  0.09  312H :  0.08  402H :  0.08   62H :  0.08  272H :  0.08  203H :  0.08  237H :  0.08
   53H :  0.08  385O :  0.08  102H :  0.08  434H :  0.08  279H :  0.08  246H :  0.08  459H :  0.08   65H :  0.07  393H :  0.07  256O :  0.07    9H :  0.07  324H :  0.07
    9 LP   *******   0.01   6.29121  -0.06185  -1.20174   76O :  4.08  109O :  2.89   67O :  2.72  526O :  2.69   31O :  2.59  265O :  2.24   10O :  2.07   40O :  2.05   16O :  1.89  100O :  1.79  205O :  1.77  394O :  1.75
  292O :  1.73  415O :  1.64  232O :  1.57  172O :  1.54   25O :  1.51  226O :  1.51  217O :  1.48  268O :  1.48  481O :  1.42  238O :  1.41  508O :  1.38  472O :  1.37
  463O :  1.37  343O :  1.36  511O :  1.36  157O :  1.35  469O :  1.34   19O :  1.31  397O :  1.28  325O :  1.18   58O :  1.18  310O :  1.17  475O :  1.16  505O :  1.15
  190O :  1.15  187O :  1.13  163O :  1.11  223O :  1.10  529O :  1.10  484O :  1.08  487O :  1.02  340O :  1.02  151O :  1.02   46O :  1.01  175O :  1.01   37O :  1.01
  418O :  1.00   22O :  0.97  244O :  0.93  445O :  0.92  148O :  0.92  499O :  0.86   97O :  0.85   73O :  0.85  460O :  0.84  277O :  0.80    4O :  0.80  193O :  0.77
  121O :  0.77   70O :  0.77  259O :  0.76   28O :  0.75  527H :  0.73  451O :  0.73  307O :  0.70  271O :  0.69  439O :  0.67   43O :  0.67  202O :  0.66  379O :  0.66
  490O :  0.66  409O :  0.64  208O :  0.61  382O :  0.61  112O :  0.61  319O :  0.60  229O :  0.59  367O :  0.58  247O :  0.57  352O :  0.57  250O :  0.55  181O :  0.55
  220O :  0.55  412O :  0.53   94O :  0.52  400O :  0.52  166O :  0.50  133O :  0.49  391O :  0.48  337O :  0.46  301O :  0.45  103O :  0.45  199O :  0.45  370O :  0.45
  139O :  0.44  286O :  0.43   52O :  0.41  118O :  0.39  430O :  0.38  289O :  0.37  433O :  0.37  502O :  0.37   79O :  0.37   64O :  0.37  406O :  0.36  457O :  0.36
  283O :  0.36  196O :  0.36  376O :  0.35    7O :  0.35   33H :  0.35  298O :  0.35  295O :  0.35  349O :  0.35  442O :  0.35   59H :  0.34  304O :  0.34  395H :  0.34
  388O :  0.34   34O :  0.34   85O :  0.34   55O :  0.33   88O :  0.33  334O :  0.33  274O :  0.32  466O :  0.32  106O :  0.31  160O :  0.31  136O :  0.30  214O :  0.30
  361O :  0.29  253O :  0.29  235O :  0.28  448O :  0.28  280O :  0.27  322O :  0.27  496O :  0.26  478O :  0.26  373O :  0.26  115O :  0.26  241O :  0.25  142O :  0.25
  403O :  0.25  398H :  0.25  436O :  0.24  358O :  0.24  421O :  0.23  514O :  0.23  346O :  0.23  355O :  0.22  184O :  0.22   78H :  0.20  316O :  0.20  483H :  0.20
  154O :  0.19  313O :  0.19   39H :  0.19  476H :  0.18  233H :  0.18  471H :  0.17    1O :  0.17  517O :  0.17   13O :  0.16  523O :  0.16   74H :  0.16   61O :  0.16
  331O :  0.16  470H :  0.15  520O :  0.15  269H :  0.14  169O :  0.14  122H :  0.14  211O :  0.13  145O :  0.13  252H :  0.13   91O :  0.13  493O :  0.13  392H :  0.12
  424O :  0.12  486H :  0.12  191H :  0.12   47H :  0.12  278H :  0.11  225H :  0.11  194H :  0.11  512H :  0.11  440H :  0.10  176H :  0.10  464H :  0.10  491H :  0.10
  482H :  0.10   26H :  0.10  474H :  0.10  293H :  0.09   69H :  0.09  368H :  0.09  312H :  0.08   62H :  0.08  272H :  0.08  203H :  0.08  237H :  0.08   53H :  0.08
  385O :  0.08  102H :  0.08  434H :  0.08  246H :  0.08  279H :  0.08  459H :  0.08   65H :  0.07  393H :  0.07  256O :  0.07    9H :  0.07  324H :  0.07
   10 LP   *******   0.01  10.36485  -9.40885   5.99235  415O :  3.80  109O :  2.86   67O :  2.73  526O :  2.66   31O :  2.56  265O :  2.22   76O :  2.09   10O :  2.09   40O :  2.03   16O :  1.87  100O :  1.77  205O :  1.75
  394O :  1.73  292O :  1.71  232O :  1.55  172O :  1.53   25O :  1.50  226O :  1.49  217O :  1.47  268O :  1.47  481O :  1.40  238O :  1.39  508O :  1.36  472O :  1.36
  463O :  1.36  343O :  1.35  511O :  1.34  157O :  1.34  469O :  1.33   19O :  1.30  397O :  1.27  325O :  1.17   58O :  1.17  310O :  1.16  475O :  1.14  505O :  1.14
  190O :  1.14  187O :  1.12  163O :  1.10  223O :  1.09  529O :  1.09  484O :  1.07  487O :  1.01  340O :  1.01  151O :  1.01   46O :  1.00  175O :  1.00   37O :  1.00
  418O :  0.99   22O :  0.96  244O :  0.91  445O :  0.91  148O :  0.91  499O :  0.86   97O :  0.84   73O :  0.84  460O :  0.83  277O :  0.79    4O :  0.79  193O :  0.76
  121O :  0.76   70O :  0.76  259O :  0.75   28O :  0.74  527H :  0.72  451O :  0.72  307O :  0.69  271O :  0.68  439O :  0.66   43O :  0.66  202O :  0.66  379O :  0.65
  490O :  0.65  409O :  0.63  208O :  0.61  382O :  0.60  112O :  0.60  319O :  0.59  229O :  0.58  367O :  0.57  247O :  0.57  352O :  0.56  250O :  0.55  181O :  0.55
  220O :  0.54  412O :  0.52   94O :  0.52  400O :  0.51  166O :  0.50  133O :  0.48  391O :  0.48  337O :  0.46  103O :  0.45  301O :  0.45  199O :  0.44  370O :  0.44
  139O :  0.44  286O :  0.43   52O :  0.41  118O :  0.38  430O :  0.37  289O :  0.37  433O :  0.37  502O :  0.37   79O :  0.37   64O :  0.36  457O :  0.36  406O :  0.36
  283O :  0.36  196O :  0.36  376O :  0.35    7O :  0.35   33H :  0.35  349O :  0.35  298O :  0.35  295O :  0.35  442O :  0.34   59H :  0.34  395H :  0.34  304O :  0.34
  388O :  0.34   34O :  0.33   85O :  0.33  334O :  0.32   55O :  0.32   88O :  0.32  274O :  0.31  466O :  0.31  106O :  0.31  160O :  0.30  136O :  0.30  214O :  0.30
  361O :  0.29  253O :  0.29  235O :  0.28  448O :  0.28  280O :  0.27  322O :  0.27  496O :  0.26  478O :  0.26  373O :  0.25  241O :  0.25  142O :  0.25  403O :  0.25
  398H :  0.24   78H :  0.24  115O :  0.23  358O :  0.23  421O :  0.23  514O :  0.23  346O :  0.23  436O :  0.23  355O :  0.22  184O :  0.21  316O :  0.19  483H :  0.19
  154O :  0.19  313O :  0.19   39H :  0.19  476H :  0.18  233H :  0.18  471H :  0.17    1O :  0.17  517O :  0.17   13O :  0.16  523O :  0.16   74H :  0.16   61O :  0.15
  331O :  0.15  470H :  0.15  520O :  0.14  269H :  0.14  169O :  0.14  122H :  0.14  211O :  0.13  145O :  0.13  252H :  0.12   91O :  0.12  493O :  0.12  392H :  0.12
  424O :  0.12  191H :  0.12   47H :  0.12  486H :  0.12  278H :  0.11  194H :  0.11  225H :  0.11  512H :  0.10  176H :  0.10  440H :  0.10  464H :  0.10  293H :  0.10
  491H :  0.10  482H :  0.10   26H :  0.10  474H :  0.10   69H :  0.09  368H :  0.09  312H :  0.08   62H :  0.08  272H :  0.08  203H :  0.08  237H :  0.08   53H :  0.08
  385O :  0.08  102H :  0.08  434H :  0.08  279H :  0.08  246H :  0.08  459H :  0.08   65H :  0.07  393H :  0.07  256O :  0.07    9H :  0.07  324H :  0.07
   11 LP   *******   0.01  13.08448   3.53106   0.60149  268O :  3.50  109O :  2.58   67O :  2.42  526O :  2.40   31O :  2.31  265O :  2.00   76O :  1.88   10O :  1.88   40O :  1.83   16O :  1.69  100O :  1.60  205O :  1.58
  394O :  1.56  292O :  1.54  415O :  1.46  232O :  1.40  172O :  1.38   25O :  1.35  226O :  1.34  217O :  1.32  481O :  1.26  238O :  1.26  508O :  1.23  472O :  1.22
  463O :  1.22  343O :  1.21  511O :  1.21  157O :  1.20  469O :  1.20   19O :  1.17  397O :  1.14  325O :  1.06   58O :  1.05  310O :  1.05  475O :  1.03  505O :  1.03
  190O :  1.02  187O :  1.01  163O :  0.99  223O :  0.98  529O :  0.98  484O :  0.96  487O :  0.91  340O :  0.91  151O :  0.91   46O :  0.90  175O :  0.90   37O :  0.90
  418O :  0.89   22O :  0.86  244O :  0.82  445O :  0.82  148O :  0.82  499O :  0.77   97O :  0.76   73O :  0.76  460O :  0.75  277O :  0.71    4O :  0.71  121O :  0.69
  259O :  0.69   70O :  0.69  193O :  0.68   28O :  0.67  527H :  0.65  451O :  0.65  307O :  0.62  271O :  0.62  439O :  0.60   43O :  0.59  202O :  0.59  490O :  0.59
  379O :  0.59  409O :  0.57  208O :  0.55  382O :  0.54  112O :  0.54  319O :  0.53  229O :  0.53  367O :  0.52  247O :  0.51  352O :  0.51  250O :  0.49  181O :  0.49
  220O :  0.49  412O :  0.47   94O :  0.46  400O :  0.46  133O :  0.43  391O :  0.43  166O :  0.43  337O :  0.41  301O :  0.40  103O :  0.40  199O :  0.40  370O :  0.40
  139O :  0.40  286O :  0.38   52O :  0.37  118O :  0.35  430O :  0.34  289O :  0.33  433O :  0.33  502O :  0.33   79O :  0.33   64O :  0.33  406O :  0.32  457O :  0.32
  283O :  0.32  196O :  0.32  376O :  0.32    7O :  0.32   33H :  0.31  298O :  0.31  349O :  0.31  295O :  0.31  442O :  0.31   59H :  0.31  304O :  0.31  395H :  0.30
  388O :  0.30   34O :  0.30   85O :  0.30   88O :  0.29  334O :  0.29   55O :  0.29  274O :  0.28  466O :  0.28  106O :  0.28  160O :  0.27  136O :  0.27  214O :  0.27
  361O :  0.26  253O :  0.26  235O :  0.25  448O :  0.25  280O :  0.24  322O :  0.24  496O :  0.24  478O :  0.23  373O :  0.23  241O :  0.22  142O :  0.22  403O :  0.22
   78H :  0.22  398H :  0.22  436O :  0.21  358O :  0.21  115O :  0.21  421O :  0.21  514O :  0.21  346O :  0.21  355O :  0.19  184O :  0.19  316O :  0.18  483H :  0.17
  154O :  0.17  313O :  0.17   39H :  0.17  476H :  0.16  233H :  0.16  471H :  0.16    1O :  0.15  517O :  0.15   13O :  0.15  523O :  0.14   74H :  0.14   61O :  0.14
  331O :  0.14  470H :  0.13  520O :  0.13  169O :  0.13  122H :  0.13  211O :  0.12  424O :  0.12  269H :  0.11  252H :  0.11   91O :  0.11  145O :  0.11  493O :  0.11
  392H :  0.11  191H :  0.11  486H :  0.10   47H :  0.10  278H :  0.10  225H :  0.09  512H :  0.09  176H :  0.09  464H :  0.09  440H :  0.09   69H :  0.09  491H :  0.09
  482H :  0.09   26H :  0.09  474H :  0.09  293H :  0.08  368H :  0.08  312H :  0.07   62H :  0.07  272H :  0.07  203H :  0.07  237H :  0.07   53H :  0.07
   12 LP   *******   0.01   9.21498   3.07594   0.92837   67O :  4.13  109O :  2.55  526O :  2.37   31O :  2.28  265O :  1.95   10O :  1.86   40O :  1.81   76O :  1.80   16O :  1.67  100O :  1.58  205O :  1.56  394O :  1.54
  292O :  1.52  415O :  1.45  232O :  1.38  172O :  1.36   25O :  1.33  226O :  1.32  217O :  1.31  268O :  1.29  481O :  1.25  238O :  1.24  508O :  1.21  472O :  1.21
  463O :  1.21  343O :  1.20  511O :  1.20  157O :  1.19  469O :  1.19   19O :  1.15  397O :  1.13  325O :  1.04   58O :  1.04  310O :  1.03  475O :  1.02  505O :  1.01
  190O :  1.01  187O :  0.99  163O :  0.98  223O :  0.97  529O :  0.97  484O :  0.94  487O :  0.90  340O :  0.90  151O :  0.90   46O :  0.89  175O :  0.89   37O :  0.89
  418O :  0.88   22O :  0.85  244O :  0.81  445O :  0.81  148O :  0.81   97O :  0.75  499O :  0.75   73O :  0.75  460O :  0.74  277O :  0.70    4O :  0.70  121O :  0.68
  259O :  0.68   70O :  0.68  193O :  0.68   28O :  0.67  527H :  0.64  451O :  0.64  307O :  0.62  271O :  0.61  439O :  0.59   43O :  0.59  202O :  0.59  490O :  0.58
  379O :  0.58  409O :  0.56  208O :  0.54  382O :  0.54  112O :  0.53  319O :  0.53  229O :  0.52  367O :  0.51  247O :  0.51  352O :  0.50  250O :  0.49  181O :  0.49
  220O :  0.48  412O :  0.46   94O :  0.46  400O :  0.46  166O :  0.44  133O :  0.43  391O :  0.43  337O :  0.41  301O :  0.40  103O :  0.40  199O :  0.40  370O :  0.39
  139O :  0.39  286O :  0.38   52O :  0.36  118O :  0.34  430O :  0.33  289O :  0.33  433O :  0.33  502O :  0.33   79O :  0.33   64O :  0.32  406O :  0.32  457O :  0.32
  283O :  0.32  196O :  0.32  376O :  0.31   33H :  0.31    7O :  0.31  349O :  0.31  298O :  0.31  295O :  0.31  442O :  0.31   59H :  0.30  304O :  0.30  395H :  0.30
  388O :  0.30   85O :  0.30   55O :  0.29   34O :  0.29  334O :  0.29   88O :  0.29  274O :  0.28  466O :  0.28  106O :  0.27  160O :  0.27  136O :  0.27  214O :  0.26
  361O :  0.26  253O :  0.26  448O :  0.25  235O :  0.25  280O :  0.24  322O :  0.24  496O :  0.23  478O :  0.23  373O :  0.23  241O :  0.22  142O :  0.22  403O :  0.22
  398H :  0.22  436O :  0.21  358O :  0.21  115O :  0.21  421O :  0.20  514O :  0.20  346O :  0.20  355O :  0.19  184O :  0.19  316O :  0.17  483H :  0.17  154O :  0.17
  313O :  0.17   39H :  0.17  476H :  0.16  233H :  0.16  471H :  0.15    1O :  0.15  517O :  0.15   13O :  0.15  523O :  0.14   74H :  0.14   61O :  0.14  331O :  0.14
  470H :  0.13  520O :  0.13   78H :  0.13  269H :  0.13  169O :  0.13  122H :  0.12  211O :  0.12  145O :  0.11  252H :  0.11   91O :  0.11  493O :  0.11  392H :  0.11
  424O :  0.11  194H :  0.11  191H :  0.11   47H :  0.10  278H :  0.10  225H :  0.09  486H :  0.09  512H :  0.09  176H :  0.09  440H :  0.09  464H :  0.09  491H :  0.09
  482H :  0.09   26H :  0.09  474H :  0.08  293H :  0.08  368H :  0.08  312H :  0.07   62H :  0.07  272H :  0.07  203H :  0.07  237H :  0.07
   13 LP   *******   0.01   2.86799   0.38070 -12.50967  172O :  3.22  109O :  2.52   67O :  2.40  526O :  2.34   31O :  2.26  265O :  1.96   76O :  1.84   10O :  1.84   40O :  1.79   16O :  1.65  100O :  1.56  205O :  1.54
  394O :  1.53  292O :  1.50  415O :  1.43  232O :  1.37   25O :  1.32  226O :  1.31  217O :  1.29  268O :  1.29  481O :  1.23  508O :  1.20  472O :  1.19  463O :  1.19
  238O :  1.19  343O :  1.19  511O :  1.18  157O :  1.18  469O :  1.17   19O :  1.14  397O :  1.12  325O :  1.03   58O :  1.03  310O :  1.02  475O :  1.01  505O :  1.00
  190O :  1.00  187O :  0.98  163O :  0.97  223O :  0.96  529O :  0.96  484O :  0.94  487O :  0.89  340O :  0.89  151O :  0.89   46O :  0.88  175O :  0.88   37O :  0.88
  418O :  0.87   22O :  0.84  445O :  0.80  244O :  0.80  148O :  0.80  499O :  0.75   97O :  0.74   73O :  0.74  460O :  0.73  277O :  0.70    4O :  0.69  121O :  0.67
  193O :  0.67   70O :  0.67  259O :  0.66   28O :  0.66  527H :  0.64  451O :  0.63  307O :  0.61  271O :  0.60  439O :  0.58   43O :  0.58  202O :  0.58  490O :  0.57
  379O :  0.57  409O :  0.55  208O :  0.53  382O :  0.53  112O :  0.53  319O :  0.52  229O :  0.52  367O :  0.50  247O :  0.50  352O :  0.49  250O :  0.48  181O :  0.48
  220O :  0.48  412O :  0.46   94O :  0.45  400O :  0.45  166O :  0.44  133O :  0.42  391O :  0.42  337O :  0.40  301O :  0.39  103O :  0.39  199O :  0.39  370O :  0.39
  139O :  0.39  286O :  0.38   52O :  0.36  118O :  0.34  289O :  0.33  433O :  0.32  502O :  0.32   79O :  0.32   64O :  0.32  406O :  0.32  457O :  0.32  283O :  0.31
  196O :  0.31  430O :  0.31  376O :  0.31    7O :  0.31   33H :  0.31  349O :  0.31  298O :  0.31  295O :  0.30  442O :  0.30   59H :  0.30  304O :  0.30  395H :  0.30
  388O :  0.30   34O :  0.29   85O :  0.29   88O :  0.28  334O :  0.28   55O :  0.28  274O :  0.28  466O :  0.27  106O :  0.27  160O :  0.27  136O :  0.26  214O :  0.26
  361O :  0.26  253O :  0.25  235O :  0.25  448O :  0.25  280O :  0.24  322O :  0.23  496O :  0.23  478O :  0.23  373O :  0.22  241O :  0.22  142O :  0.22  398H :  0.21
   78H :  0.21  403O :  0.21  436O :  0.21  115O :  0.21  358O :  0.21  421O :  0.20  514O :  0.20  346O :  0.20  355O :  0.19  184O :  0.19  316O :  0.17  483H :  0.17
  154O :  0.17  313O :  0.17   39H :  0.16  476H :  0.16  233H :  0.16  471H :  0.15    1O :  0.15  517O :  0.15   13O :  0.14  523O :  0.14   74H :  0.14  331O :  0.14
   61O :  0.14  470H :  0.13  520O :  0.13  269H :  0.13  169O :  0.12  122H :  0.12  211O :  0.11  145O :  0.11  252H :  0.11   91O :  0.11  493O :  0.11  392H :  0.11
  424O :  0.11  191H :  0.10   47H :  0.10  486H :  0.10  278H :  0.10  194H :  0.09  225H :  0.09  512H :  0.09  176H :  0.09  440H :  0.09  464H :  0.09  491H :  0.09
  482H :  0.09   26H :  0.09  474H :  0.08  293H :  0.08   69H :  0.08  368H :  0.08  312H :  0.07   62H :  0.07  272H :  0.07
   14 LP   *******   0.01 -14.12713 -12.19802  -1.98583  508O :  3.48  109O :  2.48   67O :  2.37  526O :  2.31   31O :  2.23  265O :  1.93   76O :  1.82   10O :  1.82   40O :  1.76   16O :  1.62  100O :  1.54  205O :  1.52
  394O :  1.50  292O :  1.48  415O :  1.41  232O :  1.35  172O :  1.33   25O :  1.30  226O :  1.29  217O :  1.27  268O :  1.27  481O :  1.22  238O :  1.21  472O :  1.18
  463O :  1.18  343O :  1.17  511O :  1.17  157O :  1.16  469O :  1.16   19O :  1.13  397O :  1.10  325O :  1.02  310O :  1.01   58O :  1.01  475O :  0.99  505O :  0.99
  190O :  0.99  187O :  0.97  163O :  0.96  223O :  0.94  529O :  0.94  484O :  0.93  487O :  0.88  340O :  0.88  151O :  0.87   46O :  0.87  175O :  0.87   37O :  0.87
  418O :  0.86   22O :  0.83  244O :  0.79  445O :  0.79  148O :  0.79  499O :  0.74   97O :  0.73   73O :  0.73  460O :  0.72  277O :  0.69    4O :  0.69  121O :  0.66
  193O :  0.66   70O :  0.66  259O :  0.65   28O :  0.65  527H :  0.63  451O :  0.62  307O :  0.60  271O :  0.59  439O :  0.58   43O :  0.57  202O :  0.57  379O :  0.57
  490O :  0.57  409O :  0.55  208O :  0.53  382O :  0.52  112O :  0.52  319O :  0.51  229O :  0.51  367O :  0.50  247O :  0.49  352O :  0.49  250O :  0.48  181O :  0.47
  220O :  0.47  412O :  0.45   94O :  0.45  400O :  0.44  166O :  0.43  133O :  0.42  391O :  0.42  337O :  0.40  301O :  0.39  103O :  0.39  199O :  0.39  370O :  0.38
  139O :  0.38  286O :  0.36   52O :  0.36  118O :  0.33  430O :  0.33  289O :  0.32  433O :  0.32  502O :  0.32   79O :  0.32   64O :  0.32  406O :  0.31  457O :  0.31
  283O :  0.31  196O :  0.31  376O :  0.30    7O :  0.30   33H :  0.30  349O :  0.30  298O :  0.30  295O :  0.30  442O :  0.30   59H :  0.30  395H :  0.29  304O :  0.29
  388O :  0.29   34O :  0.29   85O :  0.29   88O :  0.28  334O :  0.28   55O :  0.28  274O :  0.27  466O :  0.27  106O :  0.27  160O :  0.26  136O :  0.26  214O :  0.26
  361O :  0.25  253O :  0.25  235O :  0.24  448O :  0.24  280O :  0.23  322O :  0.23  496O :  0.23  478O :  0.22  373O :  0.22  241O :  0.22  142O :  0.21  403O :  0.21
   78H :  0.21  398H :  0.21  436O :  0.20  115O :  0.20  358O :  0.20  421O :  0.20  514O :  0.20  346O :  0.20  355O :  0.19  184O :  0.19  316O :  0.17  483H :  0.17
  154O :  0.17  313O :  0.16   39H :  0.16  476H :  0.15  233H :  0.15  471H :  0.15    1O :  0.15  517O :  0.14   13O :  0.14  523O :  0.14   74H :  0.14   61O :  0.13
  331O :  0.13  470H :  0.13  520O :  0.13  269H :  0.12  169O :  0.12  122H :  0.12  211O :  0.11  145O :  0.11  252H :  0.11   91O :  0.11  493O :  0.11  392H :  0.11
  424O :  0.11  191H :  0.10   47H :  0.10  486H :  0.10  278H :  0.10  194H :  0.09  225H :  0.09  464H :  0.09  512H :  0.09  440H :  0.09  176H :  0.09  491H :  0.09
  482H :  0.09   26H :  0.09  312H :  0.08  474H :  0.08  293H :  0.08   69H :  0.08  368H :  0.08   62H :  0.07  272H :  0.07
   15 LP   *******   0.01   5.09340  -1.82198   3.52782   58O :  2.62  109O :  2.47   67O :  2.34  526O :  2.29   31O :  2.21  265O :  1.91   76O :  1.80   10O :  1.77   40O :  1.75   16O :  1.61  100O :  1.53  205O :  1.51
  394O :  1.49  292O :  1.47  415O :  1.40  232O :  1.33  172O :  1.32   25O :  1.29  226O :  1.28  217O :  1.26  268O :  1.26  481O :  1.21  238O :  1.20  508O :  1.17
  472O :  1.17  463O :  1.17  343O :  1.16  511O :  1.16  157O :  1.15  469O :  1.15   19O :  1.11  397O :  1.09   59H :  1.06  325O :  1.01  310O :  1.00  475O :  0.98
  190O :  0.98  505O :  0.97  187O :  0.96  163O :  0.95  223O :  0.94  529O :  0.94  484O :  0.92  487O :  0.87  340O :  0.87  151O :  0.87   46O :  0.86  175O :  0.86
   37O :  0.86  418O :  0.85   22O :  0.82  244O :  0.79  445O :  0.79  148O :  0.78  499O :  0.74   97O :  0.73   73O :  0.72  460O :  0.72  277O :  0.68    4O :  0.68
  121O :  0.66   70O :  0.65  259O :  0.65  193O :  0.64   28O :  0.64  527H :  0.62  451O :  0.62  307O :  0.60  271O :  0.59  439O :  0.57   43O :  0.57  202O :  0.57
  379O :  0.56  490O :  0.56  409O :  0.54  208O :  0.52  382O :  0.52  112O :  0.52  319O :  0.51  229O :  0.51  367O :  0.49  352O :  0.48  247O :  0.47  250O :  0.47
  181O :  0.47  220O :  0.47  412O :  0.45   94O :  0.44  400O :  0.44  166O :  0.43  133O :  0.42  391O :  0.41  337O :  0.39  103O :  0.39  301O :  0.38  199O :  0.38
  370O :  0.38  139O :  0.38  286O :  0.37   52O :  0.35  118O :  0.33  430O :  0.32  289O :  0.32  433O :  0.32  502O :  0.32   79O :  0.32   64O :  0.31  406O :  0.31
  457O :  0.31  283O :  0.31  196O :  0.31  376O :  0.30    7O :  0.30   33H :  0.30  349O :  0.30  298O :  0.30  295O :  0.30  442O :  0.30  304O :  0.29  395H :  0.29
  388O :  0.29   34O :  0.29   85O :  0.29   55O :  0.28  334O :  0.28   88O :  0.28  274O :  0.27  466O :  0.27  106O :  0.26  160O :  0.26  136O :  0.26  214O :  0.26
  361O :  0.25  253O :  0.25  235O :  0.24  448O :  0.24  280O :  0.23  322O :  0.23  496O :  0.23  478O :  0.22  373O :  0.22  241O :  0.21  142O :  0.21  403O :  0.21
   78H :  0.21  398H :  0.21  436O :  0.20  358O :  0.20  115O :  0.20  421O :  0.20  514O :  0.20  346O :  0.20  355O :  0.19  184O :  0.18  316O :  0.17  483H :  0.17
  154O :  0.17  313O :  0.16   39H :  0.16  476H :  0.15  233H :  0.15  471H :  0.15    1O :  0.15  517O :  0.14   13O :  0.14  523O :  0.14   74H :  0.13  331O :  0.13
   61O :  0.13  470H :  0.13  520O :  0.12  269H :  0.12  169O :  0.12  122H :  0.12  211O :  0.11  145O :  0.11  252H :  0.11   91O :  0.11  493O :  0.11  392H :  0.11
  424O :  0.10  191H :  0.10   47H :  0.10  486H :  0.10  278H :  0.10  194H :  0.09  225H :  0.09  512H :  0.09  176H :  0.09  440H :  0.09  464H :  0.09  491H :  0.09
  482H :  0.09   26H :  0.08  474H :  0.08  293H :  0.08  368H :  0.08   69H :  0.07  312H :  0.07
   16 LP   *******   0.01  -8.80842  -9.21977  -9.36830  463O :  3.35  109O :  2.46   67O :  2.35  526O :  2.29   31O :  2.21  265O :  1.92   76O :  1.80   10O :  1.80   40O :  1.75   16O :  1.61  100O :  1.53  205O :  1.51
  394O :  1.49  292O :  1.47  415O :  1.40  232O :  1.34  172O :  1.32   25O :  1.29  226O :  1.28  217O :  1.26  268O :  1.26  481O :  1.21  238O :  1.20  508O :  1.17
  472O :  1.17  343O :  1.16  511O :  1.16  157O :  1.15  469O :  1.15   19O :  1.12  397O :  1.07  325O :  1.01  310O :  1.01   58O :  1.01  475O :  0.99  505O :  0.98
  190O :  0.98  187O :  0.96  163O :  0.95  223O :  0.94  529O :  0.94  484O :  0.92  487O :  0.87  340O :  0.87  151O :  0.87   46O :  0.86  175O :  0.86   37O :  0.86
  418O :  0.85   22O :  0.83  244O :  0.79  445O :  0.79  148O :  0.78  499O :  0.74   97O :  0.73   73O :  0.72  460O :  0.72  277O :  0.68    4O :  0.68  121O :  0.66
  193O :  0.66   70O :  0.66  259O :  0.65   28O :  0.64  527H :  0.62  451O :  0.62  307O :  0.60  271O :  0.59  439O :  0.57   43O :  0.57  202O :  0.57  379O :  0.56
  490O :  0.56  409O :  0.54  208O :  0.52  382O :  0.52  112O :  0.52  319O :  0.51  229O :  0.51  367O :  0.49  247O :  0.49  352O :  0.49  250O :  0.47  181O :  0.47
  220O :  0.47  412O :  0.45  400O :  0.45   94O :  0.44  166O :  0.43  133O :  0.42  391O :  0.41  337O :  0.40  301O :  0.39  103O :  0.38  199O :  0.38  370O :  0.38
  139O :  0.38  286O :  0.37   52O :  0.35  118O :  0.33  430O :  0.32  289O :  0.32  433O :  0.32  502O :  0.32   79O :  0.32   64O :  0.31  406O :  0.31  457O :  0.31
  283O :  0.31  196O :  0.31  376O :  0.30    7O :  0.30   33H :  0.30  395H :  0.30  349O :  0.30  298O :  0.30  295O :  0.30  442O :  0.30   59H :  0.30  304O :  0.29
  388O :  0.29   34O :  0.29   85O :  0.29   88O :  0.28  334O :  0.28   55O :  0.28  274O :  0.27  466O :  0.27  106O :  0.26  160O :  0.26  136O :  0.26  214O :  0.26
  361O :  0.25  253O :  0.25  235O :  0.24  448O :  0.24  280O :  0.23  322O :  0.23  496O :  0.23  478O :  0.22  373O :  0.22  241O :  0.21  142O :  0.21  403O :  0.21
  398H :  0.21   78H :  0.21  436O :  0.20  115O :  0.20  358O :  0.20  514O :  0.20  346O :  0.20  421O :  0.20  355O :  0.19  184O :  0.18  316O :  0.17  483H :  0.17
  154O :  0.17  313O :  0.16   39H :  0.16  476H :  0.15  233H :  0.15  471H :  0.15    1O :  0.15  517O :  0.14   13O :  0.14  523O :  0.14   74H :  0.13   61O :  0.13
  331O :  0.13  470H :  0.13  520O :  0.12  269H :  0.12  169O :  0.12  122H :  0.12  211O :  0.11  145O :  0.11  252H :  0.11   91O :  0.11  493O :  0.11  392H :  0.11
  424O :  0.11  191H :  0.10  486H :  0.10   47H :  0.10  278H :  0.10  194H :  0.09  225H :  0.09  512H :  0.09  176H :  0.09  440H :  0.09  491H :  0.09  482H :  0.09
   26H :  0.08  474H :  0.08  293H :  0.08  312H :  0.08  464H :  0.08   69H :  0.08  368H :  0.08
   17 LP   *******   0.01  -6.92917   6.04802   0.76407   40O :  3.47  109O :  2.40   67O :  2.29  526O :  2.24   31O :  2.15  265O :  1.87   76O :  1.76   10O :  1.76   16O :  1.57  100O :  1.49  205O :  1.48  394O :  1.46
  292O :  1.44  415O :  1.37  232O :  1.31  172O :  1.29   25O :  1.26  226O :  1.25  217O :  1.23  268O :  1.23  481O :  1.18  238O :  1.17  508O :  1.15  463O :  1.14
  472O :  1.14  343O :  1.13  511O :  1.13  157O :  1.12  469O :  1.12   19O :  1.09  397O :  1.07   58O :  0.98  310O :  0.98  475O :  0.96  190O :  0.96  505O :  0.96
  325O :  0.96  187O :  0.94  163O :  0.93  223O :  0.91  529O :  0.91  484O :  0.90  487O :  0.85  340O :  0.85  151O :  0.85   46O :  0.84  175O :  0.84   37O :  0.83
  418O :  0.83   22O :  0.81  244O :  0.77  445O :  0.77  148O :  0.76  499O :  0.72   73O :  0.70  460O :  0.70   97O :  0.70  277O :  0.66    4O :  0.66  121O :  0.64
  193O :  0.64   70O :  0.64  259O :  0.63   28O :  0.63  527H :  0.61  451O :  0.60  307O :  0.58  271O :  0.57  439O :  0.56   43O :  0.56  202O :  0.55  379O :  0.55
  490O :  0.55  409O :  0.52  208O :  0.51  382O :  0.51  112O :  0.50  319O :  0.50  229O :  0.50  367O :  0.48  247O :  0.48  352O :  0.47  250O :  0.46  181O :  0.46
  220O :  0.46  412O :  0.44   94O :  0.43  400O :  0.43  166O :  0.42  133O :  0.41  391O :  0.40  337O :  0.39  301O :  0.38  103O :  0.38  199O :  0.37  370O :  0.37
  139O :  0.37  286O :  0.36   52O :  0.34  118O :  0.32  430O :  0.31  289O :  0.31  433O :  0.31  502O :  0.31   79O :  0.31   64O :  0.31  406O :  0.30  457O :  0.30
  283O :  0.30  196O :  0.30  376O :  0.29    7O :  0.29  349O :  0.29  298O :  0.29   33H :  0.29  295O :  0.29  442O :  0.29   59H :  0.29  304O :  0.28  395H :  0.28
  388O :  0.28   34O :  0.28   85O :  0.28   88O :  0.27  334O :  0.27   55O :  0.27  274O :  0.26  466O :  0.26  106O :  0.26  136O :  0.25  160O :  0.25  214O :  0.25
  361O :  0.25  253O :  0.24  235O :  0.24  448O :  0.24  280O :  0.23  322O :  0.22  496O :  0.22  478O :  0.22  373O :  0.21  346O :  0.21  241O :  0.21  142O :  0.21
  403O :  0.21  398H :  0.20   78H :  0.20  436O :  0.20  115O :  0.20  358O :  0.20  421O :  0.19  514O :  0.19  355O :  0.18  184O :  0.18  316O :  0.16  483H :  0.16
  154O :  0.16  313O :  0.16   39H :  0.16  476H :  0.15  233H :  0.15  471H :  0.15    1O :  0.14  517O :  0.14   13O :  0.14  523O :  0.13   74H :  0.13   61O :  0.13
  331O :  0.13  470H :  0.12  520O :  0.12  269H :  0.12  169O :  0.12  122H :  0.12  211O :  0.11  145O :  0.11  252H :  0.10   91O :  0.10  493O :  0.10  392H :  0.10
  424O :  0.10   47H :  0.10  486H :  0.10  191H :  0.09  278H :  0.09  194H :  0.09  225H :  0.09  512H :  0.09  176H :  0.09  440H :  0.09  464H :  0.09  482H :  0.08
  491H :  0.08   26H :  0.08  474H :  0.08  293H :  0.08   69H :  0.07  368H :  0.07
   18 LP   *******   0.01 -18.79792  -5.01465  -5.61546  232O :  3.45  109O :  2.30   67O :  2.19  526O :  2.14   31O :  2.06  265O :  1.79   76O :  1.68   10O :  1.68   40O :  1.63   16O :  1.51  100O :  1.43  205O :  1.41
  394O :  1.39  292O :  1.38  415O :  1.31  172O :  1.23   25O :  1.21  226O :  1.20  217O :  1.18  268O :  1.18  481O :  1.13  238O :  1.12  508O :  1.10  463O :  1.09
  472O :  1.09  343O :  1.09  511O :  1.08  157O :  1.08  469O :  1.07  397O :  1.05   19O :  1.04  325O :  0.94   58O :  0.94  310O :  0.94  475O :  0.92  505O :  0.92
  190O :  0.92  187O :  0.90  163O :  0.89  223O :  0.88  529O :  0.88  484O :  0.86  487O :  0.81  340O :  0.81  151O :  0.81   46O :  0.81  175O :  0.80   37O :  0.80
  418O :  0.80   22O :  0.77  244O :  0.74  445O :  0.73  148O :  0.73  499O :  0.69   97O :  0.68   73O :  0.68  460O :  0.67  277O :  0.64    4O :  0.64  121O :  0.62
  193O :  0.62   70O :  0.61  259O :  0.61   28O :  0.60  527H :  0.58  451O :  0.58  307O :  0.56  271O :  0.55  439O :  0.53   43O :  0.53  202O :  0.53  379O :  0.53
  490O :  0.52  409O :  0.51  208O :  0.49  382O :  0.49  112O :  0.48  319O :  0.48  229O :  0.47  367O :  0.46  247O :  0.46  352O :  0.45  181O :  0.44  220O :  0.44
  250O :  0.43  412O :  0.42   94O :  0.42  400O :  0.41  166O :  0.40  133O :  0.39  391O :  0.39  337O :  0.37  301O :  0.36  103O :  0.36  199O :  0.36  370O :  0.36
  139O :  0.35  286O :  0.34   52O :  0.33  118O :  0.31  430O :  0.30  289O :  0.30  433O :  0.30  502O :  0.30   79O :  0.30   64O :  0.29  406O :  0.29  457O :  0.29
  283O :  0.29  196O :  0.29  376O :  0.28    7O :  0.28   33H :  0.28  349O :  0.28  298O :  0.28  295O :  0.28  442O :  0.28   59H :  0.28  395H :  0.27  304O :  0.27
  388O :  0.27   34O :  0.27   85O :  0.27   88O :  0.26  334O :  0.26   55O :  0.26  274O :  0.25  466O :  0.25  398H :  0.25  106O :  0.25  160O :  0.24  136O :  0.24
  214O :  0.24  361O :  0.23  253O :  0.23  235O :  0.23  448O :  0.23  280O :  0.22  322O :  0.21  496O :  0.21  478O :  0.21  373O :  0.20  241O :  0.20  142O :  0.20
  403O :  0.20   78H :  0.19  436O :  0.19  115O :  0.19  358O :  0.19  421O :  0.18  514O :  0.18  346O :  0.18  355O :  0.17  184O :  0.17  316O :  0.16  483H :  0.16
  154O :  0.15  313O :  0.15   39H :  0.15  476H :  0.14  471H :  0.14    1O :  0.14  233H :  0.14  517O :  0.13   13O :  0.13  523O :  0.13   74H :  0.13  331O :  0.12
   61O :  0.12  470H :  0.12  520O :  0.12  269H :  0.11  169O :  0.11  122H :  0.11  211O :  0.10  145O :  0.10   91O :  0.10  493O :  0.10  392H :  0.10  424O :  0.10
  252H :  0.10  191H :  0.10   47H :  0.09  486H :  0.09  278H :  0.09  194H :  0.09  225H :  0.08  512H :  0.08  440H :  0.08  176H :  0.08  464H :  0.08  491H :  0.08
  482H :  0.08   26H :  0.08  474H :  0.08  293H :  0.07   69H :  0.07  368H :  0.07
   19 LP   *******   0.01  -3.31559   1.54042   5.16938  526O :  3.72  109O :  2.33   67O :  2.22   31O :  2.09  265O :  1.81   76O :  1.70   10O :  1.70   40O :  1.65   16O :  1.52  100O :  1.45  205O :  1.43  394O :  1.41
  292O :  1.39  415O :  1.32  232O :  1.26  172O :  1.25   25O :  1.22  226O :  1.21  217O :  1.20  268O :  1.19  481O :  1.14  238O :  1.14  508O :  1.11  472O :  1.11
  463O :  1.11  343O :  1.10  511O :  1.09  157O :  1.09  469O :  1.08   19O :  1.06  397O :  1.03  325O :  0.95   58O :  0.95  310O :  0.95  475O :  0.93  505O :  0.93
  190O :  0.93  187O :  0.91  529O :  0.90  163O :  0.90  223O :  0.89  484O :  0.87  487O :  0.82  340O :  0.82  151O :  0.82   46O :  0.82  175O :  0.81   37O :  0.81
  418O :  0.81   22O :  0.78  244O :  0.74  445O :  0.74  148O :  0.74  499O :  0.70   97O :  0.69   73O :  0.68  460O :  0.68  277O :  0.64    4O :  0.64  121O :  0.62
  193O :  0.62   70O :  0.62  259O :  0.61   28O :  0.61  451O :  0.58  307O :  0.56  271O :  0.56  439O :  0.54   43O :  0.54  202O :  0.54  379O :  0.53  490O :  0.53
  409O :  0.51  527H :  0.51  382O :  0.49  208O :  0.49  112O :  0.49  319O :  0.48  229O :  0.48  367O :  0.47  247O :  0.46  352O :  0.46  250O :  0.45  181O :  0.45
  220O :  0.44  412O :  0.42   94O :  0.42  400O :  0.42  166O :  0.40  133O :  0.39  391O :  0.39  337O :  0.37  103O :  0.37  301O :  0.36  199O :  0.36  370O :  0.36
  139O :  0.36  286O :  0.35   52O :  0.33  118O :  0.31  430O :  0.30  289O :  0.30  433O :  0.30   79O :  0.30  502O :  0.30   64O :  0.30  406O :  0.29  457O :  0.29
  283O :  0.29  196O :  0.29   33H :  0.29  376O :  0.29    7O :  0.28  298O :  0.28  349O :  0.28  295O :  0.28  442O :  0.28   59H :  0.28  304O :  0.28  395H :  0.28
  388O :  0.27   34O :  0.27   85O :  0.27   88O :  0.26  334O :  0.26   55O :  0.26  274O :  0.26  466O :  0.25  106O :  0.25  160O :  0.25  136O :  0.24  214O :  0.24
  361O :  0.24  253O :  0.24  235O :  0.23  448O :  0.23  280O :  0.22  322O :  0.22  496O :  0.21  478O :  0.21  373O :  0.21  241O :  0.20  142O :  0.20  403O :  0.20
  398H :  0.20   78H :  0.20  436O :  0.19  358O :  0.19  115O :  0.19  421O :  0.19  514O :  0.19  346O :  0.19  355O :  0.18  184O :  0.17  316O :  0.16  483H :  0.16
  154O :  0.16  313O :  0.15   39H :  0.15  476H :  0.15  233H :  0.14  471H :  0.14    1O :  0.14  517O :  0.14   13O :  0.13  523O :  0.13   74H :  0.13  331O :  0.13
   61O :  0.13  470H :  0.12  269H :  0.12  169O :  0.11  122H :  0.11  520O :  0.11  211O :  0.11  145O :  0.10  252H :  0.10   91O :  0.10  493O :  0.10  392H :  0.10
  424O :  0.10  191H :  0.10   47H :  0.09  486H :  0.09  278H :  0.09  194H :  0.09  225H :  0.09  512H :  0.09  176H :  0.08  440H :  0.08  464H :  0.08  491H :  0.08
  482H :  0.08   26H :  0.08  474H :  0.08  293H :  0.07   69H :  0.07  368H :  0.07
   20 LP   *******   0.01  -3.72386   2.12227  12.56416  205O :  3.12  109O :  2.31   67O :  2.20  526O :  2.14   31O :  2.07  265O :  1.79   76O :  1.69   10O :  1.69   40O :  1.64   16O :  1.51  100O :  1.43  394O :  1.40
  292O :  1.38  415O :  1.31  232O :  1.25  172O :  1.23   25O :  1.21  226O :  1.20  217O :  1.18  268O :  1.18  481O :  1.13  238O :  1.12  508O :  1.10  511O :  1.10
  472O :  1.09  463O :  1.09  343O :  1.09  157O :  1.08  469O :  1.07   19O :  1.05  397O :  1.02  325O :  0.95   58O :  0.94  310O :  0.94  475O :  0.92  505O :  0.92
  190O :  0.92  187O :  0.90  163O :  0.89  223O :  0.88  529O :  0.88  484O :  0.86  487O :  0.82  340O :  0.81  151O :  0.81   46O :  0.81  175O :  0.81   37O :  0.80
  418O :  0.80   22O :  0.77  244O :  0.74  445O :  0.74  148O :  0.73  499O :  0.69   97O :  0.68   73O :  0.68  460O :  0.67  277O :  0.64    4O :  0.64  121O :  0.62
  193O :  0.62   70O :  0.61  259O :  0.61   28O :  0.60  527H :  0.58  451O :  0.58  307O :  0.56  271O :  0.55  439O :  0.53   43O :  0.53  202O :  0.53  379O :  0.53
  490O :  0.53  409O :  0.51  208O :  0.49  382O :  0.49  112O :  0.48  319O :  0.48  229O :  0.48  367O :  0.46  247O :  0.46  352O :  0.45  250O :  0.44  181O :  0.44
  220O :  0.44  412O :  0.42   94O :  0.42  400O :  0.41  166O :  0.40  133O :  0.39  391O :  0.39  337O :  0.37  301O :  0.36  103O :  0.36  199O :  0.36  370O :  0.36
  139O :  0.36  286O :  0.34   52O :  0.33  118O :  0.31  430O :  0.30  289O :  0.30  433O :  0.30  502O :  0.30   79O :  0.30   64O :  0.29  406O :  0.29  457O :  0.29
  283O :  0.29  196O :  0.29  376O :  0.28    7O :  0.28   33H :  0.28  349O :  0.28  298O :  0.28  295O :  0.28  442O :  0.28   59H :  0.28  304O :  0.27  395H :  0.27
  388O :  0.27   34O :  0.27   85O :  0.27   88O :  0.26  334O :  0.26   55O :  0.26  274O :  0.25  466O :  0.25  106O :  0.25  160O :  0.24  136O :  0.24  214O :  0.24
  361O :  0.24  253O :  0.23  448O :  0.23  235O :  0.22  280O :  0.22  322O :  0.21  496O :  0.21  478O :  0.21  241O :  0.20  142O :  0.20  403O :  0.20  373O :  0.20
  398H :  0.20   78H :  0.19  436O :  0.19  115O :  0.19  358O :  0.19  421O :  0.19  514O :  0.18  346O :  0.18  355O :  0.17  184O :  0.17  316O :  0.16  154O :  0.16
  483H :  0.16  313O :  0.15   39H :  0.15  476H :  0.14  233H :  0.14  471H :  0.14    1O :  0.14  517O :  0.13   13O :  0.13  523O :  0.13   74H :  0.13  331O :  0.12
   61O :  0.12  470H :  0.12  520O :  0.12  269H :  0.11  169O :  0.11  122H :  0.11  211O :  0.11  145O :  0.10  252H :  0.10   91O :  0.10  493O :  0.10  392H :  0.10
  424O :  0.10  191H :  0.10   47H :  0.09  486H :  0.09  278H :  0.09  194H :  0.09  225H :  0.08  512H :  0.08  440H :  0.08  176H :  0.08  464H :  0.08  491H :  0.08
  482H :  0.08   26H :  0.08  474H :  0.08  293H :  0.07   69H :  0.07  368H :  0.07
   21 LP   *******   0.01  11.89675 -13.70790  -1.06697  292O :  3.00  109O :  2.16   67O :  2.06  526O :  2.01   31O :  1.94  265O :  1.68   76O :  1.58   10O :  1.58   40O :  1.53   16O :  1.42  100O :  1.34  205O :  1.33
  394O :  1.31  415O :  1.23  232O :  1.17  172O :  1.16   25O :  1.13  226O :  1.12  217O :  1.11  268O :  1.11  481O :  1.06  238O :  1.05  508O :  1.03  472O :  1.03
  463O :  1.03  343O :  1.02  511O :  1.01  157O :  1.01  469O :  1.01   19O :  0.98  397O :  0.96  325O :  0.89   58O :  0.88  310O :  0.88  475O :  0.86  505O :  0.86
  190O :  0.86  187O :  0.84  163O :  0.83  223O :  0.82  529O :  0.82  484O :  0.81  487O :  0.76  340O :  0.76  151O :  0.76   46O :  0.76  418O :  0.76  175O :  0.75
   37O :  0.75   22O :  0.72  244O :  0.69  445O :  0.69  148O :  0.69  499O :  0.65   97O :  0.64   73O :  0.63  460O :  0.63  277O :  0.60    4O :  0.60  193O :  0.58
  121O :  0.58   70O :  0.58  259O :  0.57   28O :  0.56  527H :  0.55  451O :  0.54  307O :  0.52  271O :  0.52  439O :  0.50   43O :  0.50  202O :  0.50  379O :  0.49
  490O :  0.49  409O :  0.48  208O :  0.46  382O :  0.46  112O :  0.45  319O :  0.45  367O :  0.43  247O :  0.43  229O :  0.43  352O :  0.43  250O :  0.41  181O :  0.41
  220O :  0.41  412O :  0.39   94O :  0.39  400O :  0.39  166O :  0.37  133O :  0.36  391O :  0.36  337O :  0.35  301O :  0.34  103O :  0.34  199O :  0.34  370O :  0.33
  139O :  0.33  286O :  0.32   52O :  0.31  118O :  0.29  430O :  0.28  289O :  0.28  433O :  0.28  502O :  0.28   79O :  0.28   64O :  0.28  406O :  0.27  457O :  0.27
  283O :  0.27  196O :  0.27  376O :  0.26    7O :  0.26   33H :  0.26  298O :  0.26  349O :  0.26  295O :  0.26  442O :  0.26   59H :  0.26  304O :  0.26  395H :  0.26
  388O :  0.25   34O :  0.25   85O :  0.25   88O :  0.24  334O :  0.24   55O :  0.24  274O :  0.24  106O :  0.24  466O :  0.24  160O :  0.23  136O :  0.23  214O :  0.22
  361O :  0.22  253O :  0.22  235O :  0.21  448O :  0.21  280O :  0.20  322O :  0.20  496O :  0.20  478O :  0.19  373O :  0.19  241O :  0.19  142O :  0.19  403O :  0.19
  398H :  0.18   78H :  0.18  436O :  0.18  115O :  0.18  358O :  0.18  421O :  0.17  514O :  0.17  346O :  0.17  355O :  0.16  184O :  0.16  316O :  0.15  483H :  0.15
  154O :  0.15  313O :  0.14   39H :  0.14  476H :  0.13  233H :  0.13  471H :  0.13    1O :  0.13  517O :  0.13   13O :  0.12  523O :  0.12   74H :  0.12   61O :  0.12
  331O :  0.12  470H :  0.11  520O :  0.11  269H :  0.11  169O :  0.11  122H :  0.10  211O :  0.10  145O :  0.09  252H :  0.09  493O :  0.09   91O :  0.09  392H :  0.09
  424O :  0.09  191H :  0.09   47H :  0.09  486H :  0.09  278H :  0.08  194H :  0.08  225H :  0.08  512H :  0.08  440H :  0.08  176H :  0.08  464H :  0.08  491H :  0.08
  482H :  0.07   26H :  0.07  474H :  0.07
   22 LP   *******   0.01   8.32308   2.81825   0.87721   76O :  2.78  109O :  2.11  526O :  1.97   67O :  1.92   31O :  1.89  265O :  1.64   10O :  1.54   40O :  1.50   16O :  1.38  100O :  1.31  205O :  1.30  394O :  1.28
  292O :  1.26  415O :  1.20  232O :  1.15  172O :  1.13   25O :  1.11  226O :  1.10  268O :  1.09  217O :  1.08  481O :  1.04  238O :  1.03  508O :  1.01  472O :  1.00
  463O :  1.00  343O :  1.00  511O :  0.99  157O :  0.99  469O :  0.98   19O :  0.96  397O :  0.94  325O :  0.87   58O :  0.86  310O :  0.86  475O :  0.85  505O :  0.84
  190O :  0.84  187O :  0.82   78H :  0.82  163O :  0.82  223O :  0.80  529O :  0.80  484O :  0.79  487O :  0.75  340O :  0.74  151O :  0.74   46O :  0.74  175O :  0.74
   37O :  0.74  418O :  0.73   22O :  0.71  244O :  0.68  445O :  0.67  148O :  0.67  499O :  0.63   97O :  0.62   73O :  0.62  460O :  0.62  277O :  0.58    4O :  0.58
  193O :  0.57  121O :  0.57   70O :  0.56  259O :  0.56   28O :  0.55  527H :  0.53  451O :  0.53  307O :  0.51  271O :  0.51  439O :  0.49   43O :  0.49  202O :  0.49
  490O :  0.48  379O :  0.48  409O :  0.47  208O :  0.45  382O :  0.45  112O :  0.44  319O :  0.44  229O :  0.44  367O :  0.42  247O :  0.42  352O :  0.42  250O :  0.41
  181O :  0.40  220O :  0.40  412O :  0.39   94O :  0.38  400O :  0.38  166O :  0.37  133O :  0.36  391O :  0.35  337O :  0.34  301O :  0.33  103O :  0.33  199O :  0.33
  370O :  0.33  139O :  0.33  286O :  0.32   52O :  0.30  118O :  0.28  430O :  0.28  289O :  0.27  433O :  0.27  502O :  0.27   79O :  0.27   64O :  0.27  406O :  0.27
  457O :  0.27  283O :  0.26  196O :  0.26  376O :  0.26    7O :  0.26   33H :  0.26  349O :  0.26  298O :  0.26   59H :  0.26  295O :  0.26  442O :  0.25  304O :  0.25
  395H :  0.25  388O :  0.25   34O :  0.25   85O :  0.25   88O :  0.24  334O :  0.24  274O :  0.23  466O :  0.23   55O :  0.23  106O :  0.23  160O :  0.22  136O :  0.22
[...]
   144   1 h    0.885 --   142 o    0.815
   145   8 o    1.854 --   147 h    0.907   146 h    0.830
   146   1 h    0.877 --   145 o    0.830
   147   1 h    0.913 --   145 o    0.907
   148   8 o    1.804 --   149 h    0.871   150 h    0.845
   149   1 h    0.907 --   148 o    0.871
   150   1 h    0.891 --   148 o    0.845
   151   8 o    1.865 --   153 h    0.843   152 h    0.824
   152   1 h    0.886 --   151 o    0.824
   153   1 h    0.894 --   151 o    0.843
   154   8 o    1.842 --   155 h    0.875   156 h    0.824
   155   1 h    0.902 --   154 o    0.875
   156   1 h    0.881 --   154 o    0.824
   157   8 o    1.878 --   158 h    0.839   159 h    0.825
   158   1 h    0.883 --   157 o    0.839
   159   1 h    0.892 --   157 o    0.825
   160   8 o    1.827 --   162 h    0.831   161 h    0.823
   161   1 h    0.885 --   160 o    0.823
   162   1 h    0.887 --   160 o    0.831
   163   8 o    1.847 --   165 h    0.849   164 h    0.835
   164   1 h    0.887 --   163 o    0.835
   165   1 h    0.890 --   163 o    0.849
   166   8 o    1.837 --   168 h    0.840   167 h    0.826
   167   1 h    0.881 --   166 o    0.826
   168   1 h    0.897 --   166 o    0.840
   169   8 o    1.859 --   171 h    0.914   170 h    0.795
   170   1 h    0.883 --   169 o    0.795
   171   1 h    0.919 --   169 o    0.914
   172   8 o    1.860 --   173 h    0.835   174 h    0.795
   173   1 h    0.889 --   172 o    0.835
   174   1 h    0.877 --   172 o    0.795
   175   8 o    1.844 --   177 h    0.847   176 h    0.818
   176   1 h    0.879 --   175 o    0.818
   177   1 h    0.898 --   175 o    0.847
   178   8 o    1.865 --   179 h    0.896   180 h    0.796
   179   1 h    0.909 --   178 o    0.896
   180   1 h    0.872 --   178 o    0.796
   181   8 o    1.859 --   183 h    0.843   182 h    0.827
   182   1 h    0.884 --   181 o    0.827
   183   1 h    0.890 --   181 o    0.843
   184   8 o    1.882 --   186 h    0.844   185 h    0.802
   185   1 h    0.887 --   184 o    0.802
   186   1 h    0.897 --   184 o    0.844
   187   8 o    1.866 --   189 h    0.862   188 h    0.821
   188   1 h    0.884 --   187 o    0.821
   189   1 h    0.893 --   187 o    0.862
   190   8 o    1.867 --   192 h    0.833   191 h    0.818
   191   1 h    0.886 --   190 o    0.818
   192   1 h    0.888 --   190 o    0.833
   193   8 o    1.868 --   194 h    0.845   195 h    0.810
   194   1 h    0.884 --   193 o    0.845
   195   1 h    0.876 --   193 o    0.810
   196   8 o    1.836 --   198 h    0.891   197 h    0.823
   197   1 h    0.881 --   196 o    0.823
   198   1 h    0.910 --   196 o    0.891
   199   8 o    1.883 --   200 h    0.806   201 h    0.803
   200   1 h    0.873 --   199 o    0.806
   201   1 h    0.875 --   199 o    0.803
   202   8 o    1.856 --   204 h    0.842   203 h    0.815
   203   1 h    0.879 --   202 o    0.815
   204   1 h    0.894 --   202 o    0.842
   205   8 o    1.834 --   206 h    0.876   207 h    0.855
   206   1 h    0.898 --   205 o    0.876
   207   1 h    0.896 --   205 o    0.855
   208   8 o    1.836 --   209 h    0.843   210 h    0.832
   209   1 h    0.891 --   208 o    0.843
   210   1 h    0.886 --   208 o    0.832
   211   8 o    1.858 --   213 h    0.813   212 h    0.796
   212   1 h    0.878 --   211 o    0.796
   213   1 h    0.879 --   211 o    0.813
   214   8 o    1.829 --   216 h    0.806   215 h    0.791
   215   1 h    0.882 --   214 o    0.791
   216   1 h    0.878 --   214 o    0.806
   217   8 o    1.872 --   219 h    0.828   218 h    0.820
   218   1 h    0.888 --   217 o    0.820
   219   1 h    0.877 --   217 o    0.828
   220   8 o    1.841 --   221 h    0.899   222 h    0.856
   221   1 h    0.905 --   220 o    0.899
   222   1 h    0.895 --   220 o    0.856
   223   8 o    1.848 --   224 h    0.841   225 h    0.840
   224   1 h    0.892 --   223 o    0.841
   225   1 h    0.891 --   223 o    0.840
   226   8 o    1.890 --   228 h    0.819   227 h    0.813
   227   1 h    0.879 --   226 o    0.813
   228   1 h    0.886 --   226 o    0.819
   229   8 o    1.879 --   231 h    0.849   230 h    0.797
   230   1 h    0.876 --   229 o    0.797
   231   1 h    0.894 --   229 o    0.849
   232   8 o    1.842 --   234 h    0.885   233 h    0.812
   233   1 h    0.883 --   232 o    0.812
   234   1 h    0.904 --   232 o    0.885
   235   8 o    1.833 --   236 h    0.835   237 h    0.818
   236   1 h    0.891 --   235 o    0.835
   237   1 h    0.877 --   235 o    0.818
   238   8 o    1.886 --   240 h    0.829   239 h    0.820
   239   1 h    0.877 --   238 o    0.820
   240   1 h    0.874 --   238 o    0.829
   241   8 o    1.826 --   243 h    0.863   242 h    0.860
   242   1 h    0.895 --   241 o    0.860
   243   1 h    0.894 --   241 o    0.863
   244   8 o    1.848 --   245 h    0.812   246 h    0.795
   245   1 h    0.885 --   244 o    0.812
   246   1 h    0.876 --   244 o    0.795
   247   8 o    1.832 --   248 h    0.867   249 h    0.828
   248   1 h    0.893 --   247 o    0.867
   249   1 h    0.889 --   247 o    0.828
   250   8 o    1.871 --   251 h    0.833   252 h    0.784
   251   1 h    0.887 --   250 o    0.833
   252   1 h    0.875 --   250 o    0.784
   253   8 o    1.862 --   255 h    0.867   254 h    0.841
   254   1 h    0.893 --   253 o    0.841
   255   1 h    0.897 --   253 o    0.867
   256   8 o    1.854 --   258 h    0.910   257 h    0.780
   257   1 h    0.877 --   256 o    0.780
   258   1 h    0.920 --   256 o    0.910
   259   8 o    1.881 --   260 h    0.827   261 h    0.816
   260   1 h    0.885 --   259 o    0.827
   261   1 h    0.885 --   259 o    0.816
   262   8 o    1.850 --   264 h    0.914   263 h    0.832
   263   1 h    0.890 --   262 o    0.832
   264   1 h    0.917 --   262 o    0.914
   265   8 o    1.865 --   266 h    0.855   267 h    0.818
   266   1 h    0.893 --   265 o    0.855
   267   1 h    0.892 --   265 o    0.818
   268   8 o    1.825 --   269 h    0.815   270 h    0.802
   269   1 h    0.892 --   268 o    0.815
   270   1 h    0.882 --   268 o    0.802
   271   8 o    1.866 --   273 h    0.876   272 h    0.795
   272   1 h    0.881 --   271 o    0.795
   273   1 h    0.898 --   271 o    0.876
   274   8 o    1.844 --   275 h    0.828   276 h    0.827
   275   1 h    0.892 --   274 o    0.828
   276   1 h    0.886 --   274 o    0.827
   277   8 o    1.851 --   278 h    0.869   279 h    0.823
   278   1 h    0.899 --   277 o    0.869
   279   1 h    0.879 --   277 o    0.823
   280   8 o    1.870 --   282 h    0.879   281 h    0.825
   281   1 h    0.889 --   280 o    0.825
   282   1 h    0.899 --   280 o    0.879
   283   8 o    1.891 --   285 h    0.855   284 h    0.786
   284   1 h    0.871 --   283 o    0.786
   285   1 h    0.893 --   283 o    0.855
   286   8 o    1.865 --   287 h    0.867   288 h    0.839
   287   1 h    0.894 --   286 o    0.867
   288   1 h    0.878 --   286 o    0.839
   289   8 o    1.868 --   290 h    0.889   291 h    0.852
   290   1 h    0.902 --   289 o    0.889
   291   1 h    0.889 --   289 o    0.852
   292   8 o    1.836 --   294 h    0.870   293 h    0.822
   293   1 h    0.888 --   292 o    0.822
   294   1 h    0.902 --   292 o    0.870
   295   8 o    1.854 --   297 h    0.865   296 h    0.793
   296   1 h    0.877 --   295 o    0.793
   297   1 h    0.901 --   295 o    0.865
   298   8 o    1.848 --   300 h    0.872   299 h    0.801
   299   1 h    0.879 --   298 o    0.801
   300   1 h    0.895 --   298 o    0.872
   301   8 o    1.847 --   303 h    0.918   302 h    0.818
   302   1 h    0.886 --   301 o    0.818
   303   1 h    0.921 --   301 o    0.918
   304   8 o    1.840 --   306 h    0.859   305 h    0.833
   305   1 h    0.888 --   304 o    0.833
   306   1 h    0.899 --   304 o    0.859
   307   8 o    1.896 --   308 h    0.830   309 h    0.800
   308   1 h    0.882 --   307 o    0.830
   309   1 h    0.881 --   307 o    0.800
   310   8 o    1.813 --   312 h    0.845   311 h    0.802
   311   1 h    0.879 --   310 o    0.802
   312   1 h    0.898 --   310 o    0.845
   313   8 o    1.845 --   314 h    0.870   315 h    0.814
   314   1 h    0.901 --   313 o    0.870
   315   1 h    0.876 --   313 o    0.814
   316   8 o    1.839 --   317 h    0.913   318 h    0.785
   317   1 h    0.923 --   316 o    0.913
   318   1 h    0.881 --   316 o    0.785
   319   8 o    1.851 --   321 h    0.911   320 h    0.841
   320   1 h    0.884 --   319 o    0.841
   321   1 h    0.916 --   319 o    0.911
   322   8 o    1.836 --   324 h    0.864   323 h    0.827
   323   1 h    0.889 --   322 o    0.827
   324   1 h    0.900 --   322 o    0.864
   325   8 o    1.893 --   326 h    0.825   327 h    0.795
   326   1 h    0.888 --   325 o    0.825
   327   1 h    0.876 --   325 o    0.795
   328   8 o    1.841 --   329 h    0.909   330 h    0.871
   329   1 h    0.914 --   328 o    0.909
   330   1 h    0.896 --   328 o    0.871
   331   8 o    1.847 --   332 h    0.869   333 h    0.811
   332   1 h    0.905 --   331 o    0.869
   333   1 h    0.876 --   331 o    0.811
   334   8 o    1.826 --   336 h    0.867   335 h    0.842
   335   1 h    0.893 --   334 o    0.842
   336   1 h    0.907 --   334 o    0.867
   337   8 o    1.858 --   339 h    0.852   338 h    0.808
   338   1 h    0.879 --   337 o    0.808
   339   1 h    0.896 --   337 o    0.852
   340   8 o    1.862 --   342 h    0.863   341 h    0.807
   341   1 h    0.876 --   340 o    0.807
   342   1 h    0.899 --   340 o    0.863
   343   8 o    1.886 --   344 h    0.872   345 h    0.784
   344   1 h    0.893 --   343 o    0.872
   345   1 h    0.867 --   343 o    0.784
   346   8 o    1.833 --   348 h    0.825   347 h    0.810
   347   1 h    0.888 --   346 o    0.810
   348   1 h    0.889 --   346 o    0.825
   349   8 o    1.891 --   351 h    0.816   350 h    0.793
   350   1 h    0.875 --   349 o    0.793
   351   1 h    0.890 --   349 o    0.816
   352   8 o    1.842 --   354 h    0.850   353 h    0.835
   353   1 h    0.889 --   352 o    0.835
   354   1 h    0.892 --   352 o    0.850
   355   8 o    1.835 --   356 h    0.882   357 h    0.793
   356   1 h    0.904 --   355 o    0.882
   357   1 h    0.879 --   355 o    0.793
   358   8 o    1.852 --   360 h    0.850   359 h    0.818
   359   1 h    0.881 --   358 o    0.818
   360   1 h    0.896 --   358 o    0.850
   361   8 o    1.822 --   362 h    0.885   363 h    0.855
   362   1 h    0.904 --   361 o    0.885
   363   1 h    0.892 --   361 o    0.855
   364   8 o    1.821 --   365 h    0.869   366 h    0.808
   365   1 h    0.898 --   364 o    0.869
   366   1 h    0.889 --   364 o    0.808
   367   8 o    1.850 --   369 h    0.866   368 h    0.848
   368   1 h    0.892 --   367 o    0.848
   369   1 h    0.897 --   367 o    0.866
   370   8 o    1.866 --   372 h    0.894   371 h    0.842
   371   1 h    0.877 --   370 o    0.842
   372   1 h    0.905 --   370 o    0.894
   373   8 o    1.852 --   375 h    0.917   374 h    0.819
   374   1 h    0.877 --   373 o    0.819
   375   1 h    0.921 --   373 o    0.917
   376   8 o    1.869 --   377 h    0.856   378 h    0.846
   377   1 h    0.900 --   376 o    0.856
   378   1 h    0.892 --   376 o    0.846
   379   8 o    1.845 --   380 h    0.846   381 h    0.824
   380   1 h    0.890 --   379 o    0.846
   381   1 h    0.889 --   379 o    0.824
   382   8 o    1.857 --   383 h    0.849   384 h    0.792
   383   1 h    0.898 --   382 o    0.849
   384   1 h    0.879 --   382 o    0.792
   385   8 o    1.884 --   387 h    0.803   386 h    0.790
   386   1 h    0.873 --   385 o    0.790
   387   1 h    0.891 --   385 o    0.803
   388   8 o    1.859 --   390 h    0.913   389 h    0.787
   389   1 h    0.873 --   388 o    0.787
   390   1 h    0.918 --   388 o    0.913
   391   8 o    1.854 --   393 h    0.892   392 h    0.846
   392   1 h    0.887 --   391 o    0.846
   393   1 h    0.907 --   391 o    0.892
   394   8 o    1.876 --   396 h    0.839   395 h    0.830
   395   1 h    0.881 --   394 o    0.830
   396   1 h    0.882 --   394 o    0.839
   397   8 o    1.814 --   399 h    0.822   398 h    0.820
   398   1 h    0.895 --   397 o    0.820
   399   1 h    0.889 --   397 o    0.822
   400   8 o    1.883 --   401 h    0.853   402 h    0.804
   401   1 h    0.887 --   400 o    0.853
   402   1 h    0.874 --   400 o    0.804
   403   8 o    1.868 --   405 h    0.880   404 h    0.812
   404   1 h    0.880 --   403 o    0.812
   405   1 h    0.905 --   403 o    0.880
   406   8 o    1.832 --   407 h    0.878   408 h    0.806
   407   1 h    0.901 --   406 o    0.878
   408   1 h    0.883 --   406 o    0.806
   409   8 o    1.864 --   411 h    0.827   410 h    0.791
   410   1 h    0.885 --   409 o    0.791
   411   1 h    0.890 --   409 o    0.827
   412   8 o    1.891 --   413 h    0.803   414 h    0.799
   413   1 h    0.882 --   412 o    0.803
   414   1 h    0.877 --   412 o    0.799
   415   8 o    1.851 --   416 h    0.888   417 h    0.812
   416   1 h    0.907 --   415 o    0.888
   417   1 h    0.873 --   415 o    0.812
   418   8 o    1.851 --   420 h    0.914   419 h    0.803
   419   1 h    0.875 --   418 o    0.803
   420   1 h    0.919 --   418 o    0.914
   421   8 o    1.862 --   422 h    0.910   423 h    0.828
   422   1 h    0.913 --   421 o    0.910
   423   1 h    0.884 --   421 o    0.828
   424   8 o    1.865 --   426 h    0.875   425 h    0.814
   425   1 h    0.880 --   424 o    0.814
   426   1 h    0.905 --   424 o    0.875
   427   8 o    1.833 --   429 h    0.820   428 h    0.790
   428   1 h    0.875 --   427 o    0.790
   429   1 h    0.897 --   427 o    0.820
   430   8 o    1.841 --   432 h    0.879   431 h    0.834
   431   1 h    0.892 --   430 o    0.834
   432   1 h    0.900 --   430 o    0.879
   433   8 o    1.864 --   434 h    0.910   435 h    0.768
   434   1 h    0.917 --   433 o    0.910
   435   1 h    0.872 --   433 o    0.768
   436   8 o    1.842 --   438 h    0.907   437 h    0.807
   437   1 h    0.882 --   436 o    0.807
   438   1 h    0.913 --   436 o    0.907
   439   8 o    1.854 --   440 h    0.846   441 h    0.833
   440   1 h    0.893 --   439 o    0.846
   441   1 h    0.891 --   439 o    0.833
   442   8 o    1.848 --   443 h    0.867   444 h    0.814
   443   1 h    0.900 --   442 o    0.867
   444   1 h    0.887 --   442 o    0.814
   445   8 o    1.860 --   447 h    0.911   446 h    0.795
   446   1 h    0.870 --   445 o    0.795
   447   1 h    0.918 --   445 o    0.911
   448   8 o    1.846 --   449 h    0.896   450 h    0.835
   449   1 h    0.910 --   448 o    0.896
   450   1 h    0.892 --   448 o    0.835
   451   8 o    1.860 --   452 h    0.828   453 h    0.784
   452   1 h    0.881 --   451 o    0.828
   453   1 h    0.869 --   451 o    0.784
   454   8 o    1.856 --   456 h    0.892   455 h    0.810
   455   1 h    0.876 --   454 o    0.810
   456   1 h    0.908 --   454 o    0.892
   457   8 o    1.867 --   458 h    0.873   459 h    0.846
   458   1 h    0.897 --   457 o    0.873
   459   1 h    0.890 --   457 o    0.846
   460   8 o    1.848 --   462 h    0.888   461 h    0.840
   461   1 h    0.889 --   460 o    0.840
   462   1 h    0.901 --   460 o    0.888
   463   8 o    1.825 --   464 h    0.868   465 h    0.840
   464   1 h    0.898 --   463 o    0.868
   465   1 h    0.892 --   463 o    0.840
   466   8 o    1.831 --   467 h    0.872   468 h    0.837
   467   1 h    0.901 --   466 o    0.872
   468   1 h    0.890 --   466 o    0.837
   469   8 o    1.866 --   470 h    0.854   471 h    0.846
   470   1 h    0.893 --   469 o    0.854
   471   1 h    0.893 --   469 o    0.846
   472   8 o    1.861 --   473 h    0.841   474 h    0.814
   473   1 h    0.897 --   472 o    0.841
   474   1 h    0.884 --   472 o    0.814
   475   8 o    1.875 --   477 h    0.881   476 h    0.824
   476   1 h    0.885 --   475 o    0.824
   477   1 h    0.900 --   475 o    0.881
   478   8 o    1.860 --   479 h    0.846   480 h    0.823
   479   1 h    0.894 --   478 o    0.846
   480   1 h    0.883 --   478 o    0.823
   481   8 o    1.837 --   482 h    0.900   483 h    0.826
   482   1 h    0.911 --   481 o    0.900
   483   1 h    0.879 --   481 o    0.826
   484   8 o    1.876 --   485 h    0.849   486 h    0.790
   485   1 h    0.886 --   484 o    0.849
   486   1 h    0.866 --   484 o    0.790
   487   8 o    1.881 --   489 h    0.816   488 h    0.806
   488   1 h    0.887 --   487 o    0.806
   489   1 h    0.885 --   487 o    0.816
   490   8 o    1.882 --   491 h    0.858   492 h    0.849
   491   1 h    0.895 --   490 o    0.858
   492   1 h    0.883 --   490 o    0.849
   493   8 o    1.851 --   495 h    0.875   494 h    0.860
   494   1 h    0.892 --   493 o    0.860
   495   1 h    0.903 --   493 o    0.875
   496   8 o    1.853 --   497 h    0.854   498 h    0.835
   497   1 h    0.887 --   496 o    0.854
   498   1 h    0.891 --   496 o    0.835
   499   8 o    1.836 --   501 h    0.792   500 h    0.781
   500   1 h    0.871 --   499 o    0.781
   501   1 h    0.879 --   499 o    0.792
   502   8 o    1.872 --   503 h    0.917   504 h    0.798
   503   1 h    0.922 --   502 o    0.917
   504   1 h    0.873 --   502 o    0.798
   505   8 o    1.893 --   506 h    0.854   507 h    0.811
   506   1 h    0.892 --   505 o    0.854
   507   1 h    0.883 --   505 o    0.811
   508   8 o    1.845 --   509 h    0.897   510 h    0.802
   509   1 h    0.909 --   508 o    0.897
   510   1 h    0.881 --   508 o    0.802
   511   8 o    1.857 --   512 h    0.846   513 h    0.828
   512   1 h    0.895 --   511 o    0.846
   513   1 h    0.893 --   511 o    0.828
   514   8 o    1.873 --   516 h    0.917   515 h    0.781
   515   1 h    0.873 --   514 o    0.781
   516   1 h    0.921 --   514 o    0.917
   517   8 o    1.850 --   518 h    0.875   519 h    0.801
   518   1 h    0.901 --   517 o    0.875
   519   1 h    0.879 --   517 o    0.801
   520   8 o    1.864 --   522 h    0.858   521 h    0.825
   521   1 h    0.871 --   520 o    0.825
   522   1 h    0.892 --   520 o    0.858
   523   8 o    1.833 --   524 h    0.864   525 h    0.856
   524   1 h    0.892 --   523 o    0.864
   525   1 h    0.897 --   523 o    0.856
   526   8 o    1.826 --   527 h    0.890   528 h    0.817
   527   1 h    0.903 --   526 o    0.890
   528   1 h    0.879 --   526 o    0.817
   529   8 o    1.849 --   531 h    0.889   530 h    0.856
   530   1 h    0.888 --   529 o    0.856
   531   1 h    0.897 --   529 o    0.889
 ---------------------------------------------------------------------------

Topologies differ in total number of bonds
Writing topology from bond orders to xtbtopo.mol

molecular dipole:
                 x           y           z       tot (Debye)
 q only:       -1.233      -2.311       0.073
   full:       -2.241      -3.553      -0.525      10.761
molecular quadrupole (traceless):
                xx          xy          yy          xz          yz          zz
 q only:      121.335      41.872     -64.366       2.134       5.341     -56.969
  q+dip:      169.426      56.806     -93.980       6.117       3.711     -75.446
   full:      171.200      57.268     -93.924       5.172       3.449     -77.276


           -------------------------------------------------
          | TOTAL ENERGY             -901.189725906073 Eh   |
          | GRADIENT NORM               0.094887319081 Eh/α |
          | HOMO-LUMO GAP               6.906958363108 eV   |
           -------------------------------------------------

------------------------------------------------------------------------
 * finished run on 2022/11/17 at 06:55:19.825     
------------------------------------------------------------------------
 total:
 * wall-time:     0 d,  0 h,  0 min, 20.087 sec
 *  cpu-time:     0 d,  0 h,  0 min, 26.200 sec
 * ratio c/w:     1.304 speedup
 SCF:
 * wall-time:     0 d,  0 h,  0 min, 19.527 sec
 *  cpu-time:     0 d,  0 h,  0 min, 25.178 sec
 * ratio c/w:     1.289 speedup

