531
 energy: -901.175539517040 gnorm: 0.013491543301 xtb: 6.5.1 (579679a)
o            0.52591866570698       -1.62309611821399       -1.41037358014952
h            0.34982081984487       -2.56882958427165       -1.54980026821413
h            0.52726033558229       -1.19076445922446       -2.29598661708530
o            1.41362738644763       -4.58361469914576        0.97247310987676
h            1.42741429596883       -5.14904694458641        0.18258415466014
h            2.34212518000458       -4.29729970700917        1.09023436565116
o            3.33723151988158        4.04300207840200        1.22251971947841
h            3.36035296413625        3.70391222796206        2.13354510495578
h            2.44768305201106        3.90755941796812        0.84603210710765
o            2.98331347851708       -1.58728207843688       -0.43104657010899
h            2.15863587012818       -1.73019365547783       -0.93055438486580
h            3.23160540548096       -0.64593343387215       -0.57699042216872
o           -6.30057624675081        0.38678693101510        4.67643598393391
h           -6.61246741741469        1.08209752680628        4.05141542492183
h           -5.59210147328123       -0.07115596709815        4.18770460107730
o            3.06366396726237       -4.42482752327747       -1.75182276717105
h            3.08606145788419       -3.62739522816081       -2.32488915450350
h            3.53358894456423       -5.12769801706703       -2.24996738115477
o           -1.98662009598721       -2.63413980281233        3.17095274910832
h           -1.75670310981851       -1.76664691029582        3.54326759106581
h           -1.42755033065590       -2.77465019237597        2.38360704085610
o            4.16556861903102       -3.19277088928421        3.69973472654947
h            4.29943350961129       -2.63705626854152        2.91048858947362
h            3.60938296773188       -2.63805482804885        4.27929395337975
o           -0.89469263349290       -3.32357380184840        0.80400533870651
h           -1.43799680878667       -4.12951593267590        0.92582790470466
h            0.02355991161415       -3.66217147273445        0.80485103802832
o            0.97705288985188        2.95339529549288        2.99890526727055
h            0.01188683819700        3.01987830012469        3.10546861568351
h            1.33371655296146        3.85009450439933        3.14266430713277
o           -2.33646492712949       -0.19111443466896       -2.01755668241703
h           -2.25675172722533       -1.14433412513220       -1.82310226015792
h           -2.61637010606078        0.25670244558398       -1.19952407671153
o            3.75945994640834        2.96020981236028        3.75047496664181
h            4.53529806452849        3.41480166828467        4.11829834221620
h            3.03171223372684        3.07462136274589        4.39511794603369
o            1.23035552385137        3.96377418405246       -0.31907646849678
h            0.43906547566497        4.20386822977727        0.21520695063349
h            0.93763999960835        3.34563670040169       -1.00684172408801
o           -3.29541185936126        3.97719734320738        0.80709916711997
h           -3.50120728486829        4.79942692752352        0.31450175032129
h           -3.61724129900303        4.11668952706548        1.71064603659130
o           -1.45998424304694       -0.43757259400332       -5.02788626012745
h           -2.15723200395814       -0.82697209937598       -4.47279084542777
h           -1.41466841075129       -1.02720915039839       -5.80188253781863
o           -1.34632809159159        5.56137013003240       -3.71688192425862
h           -1.22682893857842        5.35026240271814       -4.64712380575352
h           -0.80801709433460        6.34249060716211       -3.51587445900738
o           -4.50345741708224        0.99747501415720       -3.10443416427993
h           -5.17718169127606        0.86465420048008       -2.41262327136412
h           -3.73239057381961        0.47054458724414       -2.81986552348124
o            0.29899053536051       -2.72391130698364       -4.17838654834173
h           -0.57295039594347       -3.14673371305505       -4.18314986879951
h            0.42490968437835       -2.24378475092821       -5.01958381489764
o            2.51986549371404        1.08831414022923        1.90419774053436
h            2.03164807140989        1.83355105238858        2.29900685520480
h            3.43617472690189        1.39630610635495        1.79586958858424
o            4.26596646151631       -1.08126258838349        2.06489384282537
h            3.30042566519617       -1.01540363379397        1.95736560750142
h            4.70072843787996       -0.78002325173182        1.25026841210366
o           -3.99919496366646        5.85649659475120       -2.89684900963865
h           -4.15599830211875        4.90431805089189       -2.70602660864261
h           -3.16260495238293        5.86932363736134       -3.38417296272628
o            0.77025552423813       -0.12876033595391       -3.54498084250729
h            0.77162157261115        0.76860070209154       -3.17847670561014
h           -0.01933775550589       -0.21329602581113       -4.11114506348026
o            5.06107462704839        1.82586177890197        1.40193811003228
h            5.28795621259885        2.76833004546241        1.48464110115931
h            5.85147512291707        1.33578534026988        1.67548748855337
o            8.78578595348081       -1.73982459888433       -0.27214908865077
h            9.21089280934034       -2.54079079497267       -0.60635535774431
h            8.50083496601740       -1.95262860164096        0.63436132984603
o           -5.88947204349223        0.89467504829494       -0.77899775852687
h           -6.69465590098937        0.36117412329159       -0.81498958128778
h           -6.08124299060013        1.69861668290728       -0.25419640571645
o            3.61924661951674        0.91372349772738       -0.83925986523605
h            4.30198182327498        0.85569494911110       -1.53417568466346
h            4.09680366521047        1.25556469531243       -0.06773568121556
o           -4.11071879111967       -0.88592303110656        3.56550303700295
h           -3.26255491950948       -0.56305053746172        3.91050069269549
h           -4.00179005462546       -0.87404684470865        2.60715956831553
o           -4.79503154153092        1.11797494947758       -5.72982727200367
h           -4.95032866622297        0.19176428820858       -6.02068151501859
h           -4.66208809696513        1.04305100032890       -4.75469818707284
o           -7.08805506779102        2.38006048588516       -5.59313454518544
h           -7.61761348586020        2.24099611908715       -6.37731981363097
h           -6.20553707206825        1.96272522000402       -5.75685925019535
o            6.74121375886979       -3.32245735875196        4.21581533586892
h            5.76797694796397       -3.42466307596973        4.08291089639971
h            7.12237962580655       -4.19425200336952        4.10251693078072
o            5.77130281415544       -4.26055500831801       -4.64450599859642
h            5.54694434457077       -3.30622539285787       -4.55395410929745
h            5.57690715019075       -4.47884346846609       -5.55600914852984
o           -8.83610551221216       -4.57678602437915       -0.19088065539045
h           -8.40365548033352       -5.35392297497879       -0.56273309859152
h           -8.80425040906747       -4.68501205823846        0.78356265630312
o           -3.34426344662899        1.40016992359644       -0.09651509894569
h           -4.25689582315784        1.11380393746462       -0.25310847671753
h           -3.39340880896961        2.35060207431815        0.10517248304218
o            0.36789778646768       -4.26645707627044       -1.72586144397938
h            1.33120379139505       -4.42158362617824       -1.76103370901665
h           -0.05837307388453       -5.08692965984941       -2.00409317716591
o            0.84051340901953        0.24725379996048        4.01795752782592
h            1.18075318575339       -0.18961111540857        3.22211538646161
h            0.93185543944506        1.19882433157663        3.87023285413117
o            4.52159961149937       -6.21255939991677       -3.05868175742448
h            5.03699129738276       -6.47907612449036       -2.26644635822572
h            5.07328492631577       -5.60953433016393       -3.58184897708631
o            2.90524298436035       -1.27271043812186        5.01892896105830
h            2.03143078772965       -0.87057328743097        4.88113906184246
h            3.54397027250081       -0.59820665420025        4.71207405772755
o           -6.68262103750587       -2.94854199254305        0.29707493283809
h           -5.87981094338828       -3.39189799170947       -0.02041380240629
h           -7.42165430494059       -3.55999292861405        0.14088409372944
o            5.77295154240257        0.92146939820856       -2.44135477969838
h            6.29505748016282        1.44083705522348       -1.79785240870044
h            6.31553963376260        0.11613657882519       -2.58390023757318
o           -1.59018639526697        1.92453570564702       -3.44593594379606
h           -1.75625026876030        1.05009319867532       -3.05817393957167
h           -1.54306154963947        2.56076759011942       -2.69177414916497
o            3.93958599909672       -3.83326670336102        0.70427415385937
h            3.78930657863941       -4.17658204560900       -0.20260621520269
h            3.86210746428502       -2.87342939081166        0.60743266154431
o            1.09064398151344       -0.05468389102667        6.85867873267206
h            0.48740197338014        0.58483204164094        6.45093305610119
h            1.95206152649338        0.37812484921884        6.93841297497464
o            4.11839925790685       -1.54062199856540        7.40526674766098
h            3.60302360872191       -1.59302462720393        6.57429630665625
h            4.90793539085610       -2.06611365821183        7.27818360975165
o           -1.72035130899086       -0.37841853599163        4.70908893050435
h           -1.68071167426864       -0.90625098422078        5.54062644505695
h           -0.80979152937009       -0.08687615484015        4.51170146401742
o            1.10299951086703        2.30701357046204       -2.39672263643902
h            2.08061487326674        2.37392471395401       -2.58978555532748
h            0.66357690693505        2.83597726298641       -3.07175247351196
o           -0.88543837565143        6.98349505989163       -0.34706629759999
h           -0.55106880387345        7.17470690585189       -1.23808479873396
h           -0.25299506082768        7.42797767565412        0.27493531509247
o           -3.75997363546061       -7.40606377178706        0.43626527102470
h           -3.22175961059482       -6.67718069031055        0.83124797457912
h           -4.61550056538741       -7.32746644597942        0.87035323135110
o           -6.21365279441562       -0.29203811230574        1.95800303864200
h           -5.62333904218337       -0.61199877812045        1.24646243705664
h           -7.03074550820828        0.05695989341557        1.55224640698724
o            8.58444061736105        2.88932171703700       -3.41888218870640
h            7.69517220426467        2.74106784769163       -3.78237117938275
h            8.87285627430259        3.72250522323700       -3.79369470923197
o           -2.24832533220674        1.49927968570105       -6.83801248318903
h           -3.19302734126033        1.44524479201427       -6.63696164514216
h           -1.82574765241232        0.95513353828536       -6.15292872654941
o           -8.47120442366659        0.54457529817592        0.82634959383368
h           -8.64240131728364        1.50300409805547        0.80578691484135
h           -9.23105706646974        0.10288172985493        1.23967526878665
o            1.95732542600527        3.05959523653953        5.77873369256583
h            2.52595503984936        2.58987532401872        6.40071065576100
h            1.09758121166981        2.59997118758246        5.79563503019825
o           -7.12545557362104        3.23078560975722       -1.69985530529256
h           -7.16938040644604        2.33811057657704       -2.08015590600915
h           -7.46698479113483        3.81873100040962       -2.40165000798175
o           -4.44080863289465        1.73461448146746        2.58211153673925
h           -4.78774791650681        2.42022707305834        1.99061734941647
h           -5.05519513709361        0.99178906288468        2.45398196922659
o            7.13502642293320       -0.63340611743430        4.55499759230078
h            6.25411167496179       -0.22703009483672        4.61247971726787
h            6.99901251155193       -1.59382270812970        4.53168061036413
o            9.34294300448918        0.77449295954458       -1.19726967972062
h            9.30821629351080       -0.09134597962531       -0.75798817187634
h           10.27968125548127        0.97543721250202       -1.33149873596756
o           -9.91207414738695        1.81675097674726        3.71042206095782
h          -10.59180702902344        1.68881924191634        3.00112617926426
h          -10.31362805503186        2.39072460129556        4.36204351700258
o            1.94174085835110        0.95276058840570       -6.20190407010539
h            1.27706284151769        1.56775504014851       -5.83906708216847
h            2.45367658665528        0.61077931393356       -5.43059920496481
o           -2.84829303094389       -3.94222356945206        5.37966757319022
h           -2.53120140246235       -3.47756387226162        4.58015279546682
h           -3.77464293129974       -3.66527270244686        5.49195826327242
o            3.43444818726183        6.71604778910496        0.96882698301519
h            3.93858686688947        7.02171498634605        1.72666296590537
h            3.33939531178069        5.74580014292170        1.10575499061151
o           -4.36680441486063        3.43976614476852       -1.86173156877409
h           -4.31200891054447        2.65894778581062       -2.44036828978975
h           -5.29359467547565        3.48180952456778       -1.57455228971745
o           -7.32165563921809        2.26136920029685        3.06371756195722
h           -7.02708690684752        3.09923052806255        3.48958598064654
h           -8.27703699478073        2.17568314554671        3.21385429682825
o           -6.14675860442161        5.62379872454034        0.16292282558450
h           -6.47830853206144        5.81655315205727       -0.73995769874900
h           -5.30764386587213        6.09522952880249        0.22223530228189
o           -5.98572644576205        3.01293056416923        0.83357299416358
h           -6.05323227149890        3.95125161471466        0.57595996836399
h           -6.65983702862012        2.82444444215642        1.50915236008541
o            6.02468515874740       -0.47888824877032        0.07550092559506
h            6.50882593713017        0.35260209268676        0.03318384462119
h            6.50808263009922       -1.06083921217825        0.69615968541221
o            4.76792740134590        5.85765199014451        3.33296711547715
h            5.18811585216202        5.34535289927363        2.61196432366960
h            5.22563289038111        5.57825091656616        4.13065336446985
o            5.27500371400071       -2.29380761958701       -1.66040127765298
h            4.32386733194429       -2.22608125787060       -1.45594715552161
h            5.67467684471996       -1.56668771574751       -1.13914611361335
o           -0.68691375347035        6.45832116401593        3.14740510869300
h           -0.64141881919130        5.71113858023724        2.51730037705250
h           -0.51368536174202        6.07762655873576        4.02380457568330
o           -2.35657054746410        0.69928601582222        7.43455754724344
h           -1.95650160478128       -0.17082276095158        7.55109205923165
h           -3.29980116925434        0.51888349085926        7.30048489038271
o           -4.16778180222540       -1.26597299884686        0.52125300173952
h           -4.17289717465110       -2.17702381232217        0.85526642215079
h           -4.41530196576124       -1.31618181058833       -0.41568898253379
o            5.51934902973092       -1.62143484986822       -4.21388206864813
h            5.50686996078873       -1.84070425282481       -3.25692861123153
h            4.77319967735680       -1.00699004957462       -4.34405800767126
o           -4.30776323523815       -3.50715550351624        2.10552297075597
h           -5.14599316056987       -3.19182662077156        2.52078137602918
h           -3.57478506324182       -3.10521995600691        2.61403362287759
o            2.80777895140266       -2.29507553726978       -3.30474833759540
h            3.17786215306739       -2.50957629786884       -4.18787097036167
h            1.84807169834118       -2.33018566521244       -3.43490808081925
o            4.85365884649198       -0.77097547287104       -6.98083695553854
h            4.31502415216481        0.02156008459966       -7.02486514785382
h            5.73671341616470       -0.49525346425159       -6.68909831700502
o           -7.52120504020483        0.99521357776685       -3.26858395595056
h           -7.42041984825526        0.05566393773549       -3.48706230288082
h           -7.34276691935982        1.48413712370586       -4.09185785316965
o            7.60354300366568       -0.99668864963028       -2.56367618844983
h            7.92965452350974       -1.23792282194906       -1.67552390464992
h            8.31884030420254       -0.47448601387838       -2.97934588648492
o            6.59450997718096       -4.16622815286968       -0.31359921510533
h            6.09626662720604       -3.55352217571463       -0.89923122327174
h            7.49777518877867       -4.21553599459501       -0.66116082795963
o           -9.26045772654167       -2.89564262895083       -2.44619558104933
h           -8.84435863024646       -2.12217006531118       -2.00357896981367
h           -9.53558966891582       -3.47514079148640       -1.72636113353318
o           -0.53364036909028        1.98403161012713        5.85316726146051
h           -1.22180352284474        1.69238390958550        6.47903731929418
h           -0.98313192698765        2.21805718181511        5.02061393870216
o            3.49494553894922        0.17766129441716       -4.20241498031206
h            3.61875048376311        0.99987463353480       -3.69967696035490
h            2.92185941161872       -0.41245328013368       -3.68418615929193
o           -0.10497791186056        5.10486656658546        5.43726723964657
h           -0.94827929512163        4.67881851551314        5.65120601529757
h            0.58996305746470        4.46766081510343        5.64069158667316
o            6.07053208349391        2.50360427582291       -4.51951487309275
h            5.34664458185409        2.58749917823944       -5.17624120806378
h            5.73083704330975        1.94177726624752       -3.78417430491539
o            1.57083952326225       -1.64956431345844        2.08962215363093
h            1.63729929639643       -2.01732578493865        1.20353432633939
h            1.28395636117818       -2.38119637337966        2.67787487885442
o           -7.75526718058924       -1.07859312513150       -1.17279458299130
h           -8.40547415616502       -0.54954493541469       -0.68014763089766
h           -7.37499442356984       -1.72672775559919       -0.52598823060016
o           -8.19712213239487        4.32415650841747       -3.89439057208999
h           -8.99561087071354        3.77767218731860       -3.75440132757757
h           -7.70305578263293        3.86464417884992       -4.58775693696161
o            0.31643126624241        7.48330771572064       -2.75884082004272
h            1.03760939813373        6.82707245670442       -2.56734694740883
h            0.73099236768050        8.33670981074481       -2.87760231692475
o            7.42085127231527        0.62687029214084        2.20001940008849
h            8.28366936806525        0.41220553355659        1.79895705959815
h            7.35664631607201        0.08268986662836        3.01111385323781
o           11.93623522499141        1.65903077747983       -1.67224952745347
h           11.53989529936253        2.54573098051457       -1.54811326417081
h           12.19585862860421        1.59474172984474       -2.59193908552743
o            6.13657355886647        4.35886796509703        1.52375693683039
h            6.55981466489957        4.71152903437809        0.72861461540124
h            6.85998600415061        3.98562463742559        2.07205478156072
o            7.20981731049443        2.11412607905785       -0.52402368758272
h            7.44042068919965        3.06410447702151       -0.55485853002196
h            8.04513750579577        1.63995600984955       -0.73462654054372
o            1.69652124020190       -6.74611296161530       -0.66730019088998
h            1.83401975734506       -6.79929592038145       -1.64044994440379
h            0.98756311437661       -7.35860864669002       -0.45310271716224
o            6.99427716989135       -2.35399818340315        1.66107519799012
h            6.98795702927764       -2.66502313834685        2.57986715574735
h            6.78701726382021       -3.12489941478112        1.10019080852766
o            0.34318370386040       -6.89657928525577        2.01560860069765
h           -0.15815991582644       -6.72608652437345        2.82115005226209
h            0.76369902824615       -6.04409682014641        1.79733302364870
o          -10.54950168154825       -1.06625536537614        1.51930934584273
h          -10.37976847429558       -1.81670698705113        2.11995077191709
h          -10.62668085878765       -1.38513372529140        0.61393984584037
o           -6.56467145214902       -2.63261876345348        3.16246378919609
h           -6.54918807548570       -1.72948858394305        2.76488485218219
h           -6.38750129288626       -2.55466920358507        4.10982178460274
o           -5.87591180745001       -5.78287765528137        1.45062559781545
h           -6.70054451354333       -5.60239650372587        1.92145460103289
h           -5.32622524044833       -4.99235443102418        1.57254006760417
o           -1.82520337736283       -4.36508559522021       -4.03724592153605
h           -2.08681890039123       -4.58892316535327       -4.93361396807360
h           -1.50285001456993       -5.17649088524020       -3.61988708635753
o            5.61788347848941       -6.64576060722580       -0.65632071750826
h            5.95224458436813       -5.74660305824696       -0.45855617295657
h            4.92909603499284       -6.82258173102072       -0.00302484391919
o           -5.18055416286332       -1.49050794571501       -6.02778660855943
h           -4.50800280996065       -1.65276960056068       -5.32067422416331
h           -6.03456724073044       -1.56733327668733       -5.57772652891491
o           -0.89213701522998       -6.58790052879409       -2.54866546364245
h           -0.91368714543056       -7.00189105438527       -1.65225492530889
h           -0.13212066214206       -6.98167033126134       -2.99676284256929
o            9.64805276588215       -3.13882771728859        2.08076021175332
h            9.12675936964630       -3.96823839623860        2.05145797167177
h           10.53109533555566       -3.34776077090466        1.77799108414340
o            2.66922180435756       -5.41481194322973        3.50821149741822
h            3.38227501840235       -4.75254545987286        3.56056193036144
h            2.85961287029378       -5.95597080972231        2.73049013277328
o           -2.45614182782611       -5.36807821456535        1.48704981723604
h           -3.20540195961234       -4.77264979400732        1.65962012002555
h           -2.01071872995151       -5.50422521363416        2.35743557908413
o           -4.43054055584729       -4.04840596250084       -0.85459341511319
h           -3.59229244091785       -3.56164189446122       -0.99137170862327
h           -4.28575405128016       -4.91452710394442       -1.26302869891974
o           -5.10128287821773       -2.45853349150431        5.49712246159294
h           -5.10419840534741       -1.89743194856196        6.28287940939311
h           -4.66409958927847       -1.91757684479270        4.80967116097289
o            9.11797377896113       -4.28371345466948       -1.35625547877039
h            9.84037108333940       -4.89291150595018       -1.49748813406725
h            8.79556872687276       -4.00649846628897       -2.25610969728501
o            6.10798205751923        3.85931823504363        4.85819559227080
h            6.83720851256376        3.61969662297540        4.25847405111116
h            6.32002493694679        3.48302096805536        5.71244193191657
o           -8.81180453286669       -0.66943006699243        4.52001740644593
h           -7.86955305148621       -0.42959865424312        4.59272788240000
h           -9.26122943607037        0.13311312705037        4.21594200245721
o           -0.79768097389338        4.73172418920439        1.09207486588064
h           -0.85048044109503        5.52985061355645        0.52515684167743
h           -1.66039197005345        4.27844338015855        0.96895412390342
o          -10.50697010859392       -0.35859025053120       -1.16132373515596
h          -10.76816987086061       -0.60127011971601       -2.05006209760111
h          -10.77390513072858        0.55862193047261       -1.02396616739934
o           -8.24234445829946       -4.58047714513687        2.41972298970542
h           -9.02853680245907       -4.28148388207634        2.89498298251172
h           -7.61071505180028       -3.84421849584479        2.57493667650509
o           -9.92667407093224        2.31622709960743       -3.24545190559655
h           -9.16872797995216        1.71131119502967       -3.15326499154942
h          -10.35879734194117        2.35076054510346       -2.38114457918434
o            8.21949031781988       -3.37828437867273       -3.63397715435051
h            7.86958192778330       -2.50164842570429       -3.35725845612325
h            7.46371591473813       -3.83703582771095       -4.03227683979735
o           -1.18665405840564       -5.49538595745446        3.80928491508570
h           -0.54114896819368       -4.75338515659468        3.77853097473909
h           -1.77955135859830       -5.29167319625404        4.54381129303837
o           -2.14443492194560       -2.81724528862420       -1.46263439290133
h           -1.71868210874597       -3.31151328786753       -2.16912084615558
h           -1.58358966927923       -2.93113419675803       -0.65806778264643
o           -3.49983731879528        6.39728666017842       -0.33438358007667
h           -3.74363379957661        6.30567248707819       -1.28469873880937
h           -2.57382165570840        6.70712760593219       -0.34939650098377
o            3.56042557517397        2.63513085682042       -3.08310150975884
h            4.02216913913473        3.02250278598081       -2.30760780920668
h            3.36278118361113        3.35042737955728       -3.72348473934618
o            3.38322945271402       -2.79154830360858       -5.87987117968259
h            4.03974788230402       -2.17382873541852       -6.25346870332153
h            2.53467455974027       -2.45627539551389       -6.21356897472348
o           -0.95296432568699       -7.72652038315588       -0.14424554521717
h           -1.84733435340964       -8.01093598816899        0.06373932518671
h           -0.56863533254367       -7.39897180364501        0.70619364048166
o            7.12426373563158        0.10607427645859       -5.52782628464436
h            6.68027018372441       -0.56055736859317       -4.96250102769393
h            6.76641592923168        0.97260803096436       -5.26907450175084
o           10.61038485129969       -1.75819413457987       -2.74396041432326
h           10.11559642570453       -2.46650036946554       -3.16504055845676
h           10.36899475299504       -0.95734383958065       -3.23462865020069
o           -3.73534028754605       -6.45179097832171       -2.04507707206367
h           -2.81936855882707       -6.54025161611470       -2.33489063837556
h           -3.76524274607207       -6.90800185709609       -1.17191885157264
o           -8.09480660538757        5.14537482622725        2.00664840392924
h           -7.45617948573742        5.55200523480106        1.39615741686850
h           -7.63153781906816        5.06418944335924        2.85044553734416
o           -7.27999960368288       -1.61759303252421       -4.21652596750305
h           -6.83009272262425       -2.26784127179635       -3.65613133779463
h           -8.19696599920967       -1.90233928920629       -4.24156946677970
o           -5.03667398731216       -0.11655954528609        7.04364491591155
h           -5.46008559242913        0.18407504442204        6.21495374669488
h           -5.55903833404853        0.22518076850817        7.76827206538277
o          -11.70629537972453        1.34590474303087        1.84303257740882
h          -11.56842279271548        1.72769207561004        0.96279827687435
h          -11.49675506356494        0.39982786960505        1.75519028055835
o            2.45373991974913        4.46125653959793       -4.64386448425569
h            1.64691452860403        3.96682616526966       -4.86582816656296
h            2.24064782451926        5.00657051310506       -3.86091400129553
o            7.95983411580989        3.08949489376597        2.98018320350742
h            8.80946545748354        3.21743743369543        2.52711236804179