      -----------------------------------------------------------      
     |                   =====================                   |     
     |                           x T B                           |     
     |                   =====================                   |     
     |                         S. Grimme                         |     
     |          Mulliken Center for Theoretical Chemistry        |     
     |                    University of Bonn                     |     
      -----------------------------------------------------------      

   * xtb version 6.5.1 (579679a) compiled by 'ehlert@majestix' on 2022-07-11

   xtb is free software: you can redistribute it and/or modify it under
   the terms of the GNU Lesser General Public License as published by
   the Free Software Foundation, either version 3 of the License, or
   (at your option) any later version.
   
   xtb is distributed in the hope that it will be useful,
   but WITHOUT ANY WARRANTY; without even the implied warranty of
   MERCHANTABILITY or FITNESS FOR A PARTICULAR PURPOSE.  See the
   GNU Lesser General Public License for more details.
   
   Cite this work as:
   * C. Bannwarth, E. Caldeweyher, S. Ehlert, A. Hansen, P. Pracht,
     J. Seibert, S. Spicher, S. Grimme, WIREs Comput. Mol. Sci., 2020, 11,
     e01493. DOI: 10.1002/wcms.1493
   
   for GFN2-xTB:
   * C. Bannwarth, S. Ehlert and S. Grimme., J. Chem. Theory Comput., 2019,
     15, 1652-1671. DOI: 10.1021/acs.jctc.8b01176
   for GFN1-xTB:
   * S. Grimme, C. Bannwarth, P. Shushkov, J. Chem. Theory Comput., 2017,
     13, 1989-2009. DOI: 10.1021/acs.jctc.7b00118
   for GFN0-xTB:
   * P. Pracht, E. Caldeweyher, S. Ehlert, S. Grimme, ChemRxiv, 2019, preprint.
     DOI: 10.26434/chemrxiv.8326202.v1
   for GFN-FF:
   * S. Spicher and S. Grimme, Angew. Chem. Int. Ed., 2020, 59, 15665-15673.
     DOI: 10.1002/anie.202004239
   
   for ALPB and GBSA implicit solvation:
   * S. Ehlert, M. Stahn, S. Spicher, S. Grimme, J. Chem. Theory Comput.,
     2021, 17, 4250-4261. DOI: 10.1021/acs.jctc.1c00471
   
   for DFT-D4:
   * E. Caldeweyher, C. Bannwarth and S. Grimme, J. Chem. Phys., 2017,
     147, 034112. DOI: 10.1063/1.4993215
   * E. Caldeweyher, S. Ehlert, A. Hansen, H. Neugebauer, S. Spicher,
     C. Bannwarth and S. Grimme, J. Chem. Phys., 2019, 150, 154122.
     DOI: 10.1063/1.5090222
   * E. Caldeweyher, J.-M. Mewes, S. Ehlert and S. Grimme, Phys. Chem. Chem. Phys.
     2020, 22, 8499-8512. DOI: 10.1039/D0CP00502A
   
   for sTDA-xTB:
   * S. Grimme and C. Bannwarth, J. Chem. Phys., 2016, 145, 054103.
     DOI: 10.1063/1.4959605
   
   in the mass-spec context:
   * V. Asgeirsson, C. Bauer and S. Grimme, Chem. Sci., 2017, 8, 4879.
     DOI: 10.1039/c7sc00601b
   * J. Koopman and S. Grimme, ACS Omega 2019, 4, 12, 15120-15133.
     DOI: 10.1021/acsomega.9b02011
   
   for metadynamics refer to:
   * S. Grimme, J. Chem. Theory Comput., 2019, 155, 2847-2862
     DOI: 10.1021/acs.jctc.9b00143
   
   for SPH calculations refer to:
   * S. Spicher and S. Grimme, J. Chem. Theory Comput., 2021, 17, 1701-1714
     DOI: 10.1021/acs.jctc.0c01306
   
   with help from (in alphabetical order)
   P. Atkinson, C. Bannwarth, F. Bohle, G. Brandenburg, E. Caldeweyher
   M. Checinski, S. Dohm, S. Ehlert, S. Ehrlich, I. Gerasimov, C. Hölzer
   A. Katbashev, J. Koopman, C. Lavigne, S. Lehtola, F. März, M. Müller,
   F. Musil, H. Neugebauer, J. Pisarek, C. Plett, P. Pracht, F. Pultar,
   J. Seibert, P. Shushkov, S. Spicher, M. Stahn, M. Steiner, T. Strunk,
   J. Stückrath, T. Rose, and J. Unsleber
   
 * started run on 2022/11/03 at 00:49:15.947     

           -------------------------------------------------
          |                Calculation Setup                |
           -------------------------------------------------

          program call               : xtb cluster.xyz --gfn2 --ohess
          hostname                   : cn0272
          coordinate file            : cluster.xyz
          omp threads                :                     1

   ID    Z sym.   atoms
    1    1 H      1, 3, 5, 6, 8, 10-12, 14, 15, 17, 18, 20, 21, 23, 24, 26,
                  27, 29, 30, 32, 33, 35, 36, 38, 39, 41, 42, 44, 45, 47, 48,
                  50, 51, 53, 54, 56, 57, 59, 60, 62, 63, 65, 66, 68, 69, 71,
                  72, 74, 75, 77, 78, 80, 81, 83, 84, 86, 87, 89, 90, 92, 93,
                  95, 96, 98, 99, 101, 102, 104, 105, 107, 108, 110, 111,
                  113, 114, 116, 117, 119, 120, 122, 123, 125, 126, 128, 129,
                  131, 132, 134, 135, 137, 138, 140, 141, 143, 144, 146, 147,
                  149, 150, 152, 153, 155, 156, 158, 159, 161, 162, 164, 165,
                  167, 168, 170, 171, 173, 174, 176, 177, 179, 180, 182, 183,
                  185, 186, 188, 189, 191, 192, 194, 195, 197, 198, 200, 201,
                  203, 204, 206, 207, 209, 210, 212, 213, 215, 216, 218, 219,
                  221, 222, 224, 225, 227, 228, 230, 231, 233, 234, 236, 237,
                  239, 240, 242, 243, 245, 246, 248, 249, 251, 252, 254, 255,
                  257, 258, 260, 261, 263, 264, 266, 267, 269, 270, 272, 273,
                  275, 276, 278, 279, 281, 282, 284, 285, 287, 288, 290, 291,
                  293, 294, 296, 297, 299, 300, 302, 303, 305, 306, 308, 309,
                  311, 312, 314, 315, 317, 318, 320, 321, 323, 324, 326, 327,
                  329, 330, 332, 333, 335, 336, 338, 339, 341, 342, 344, 345,
                  347, 348, 350, 351, 353, 354, 356, 357, 359, 360, 362, 363,
                  365, 366, 368, 369, 371, 372, 374, 375, 377, 378, 380, 381,
                  383, 384, 386, 387, 389, 390, 392, 393, 395, 396, 398, 399,
                  401, 402, 404, 405, 407, 408, 410, 411, 413, 414, 416, 417,
                  419, 420, 422, 423, 425, 426, 428, 429, 431, 432, 434, 435,
                  437, 438, 440, 441, 443, 444, 446, 447, 449, 450, 452, 453,
                  455, 456, 458, 459, 461, 462, 464, 465, 467, 468, 470, 471,
                  473, 474, 476, 477, 479, 480, 482, 483, 485, 486, 488, 489,
                  491, 492, 494, 495, 497, 498, 500, 501, 503, 504, 506, 507,
                  509, 510, 512, 513, 515, 516, 518, 519, 521, 522, 524, 525,
                  527, 528, 530, 531, 533, 534, 536, 537, 539, 540, 542, 543,
                  545, 546, 548, 549, 551, 552, 554, 555, 557, 558, 560, 561,
                  563, 564, 566, 567, 569, 570, 572, 573, 575, 576, 578, 579,
                  581, 582, 584, 585, 587, 588, 590, 591, 593, 594, 596, 597,
                  599, 600, 602, 603, 605, 606, 608, 609, 611, 612
    2    6 C      2, 4
    3    8 O      7, 13, 16, 19, 22, 25, 28, 31, 34, 37, 40, 43, 46, 49, 52,
                  55, 58, 61, 64, 67, 70, 73, 76, 79, 82, 85, 88, 91, 94, 97,
                  100, 103, 106, 109, 112, 115, 118, 121, 124, 127, 130, 133,
                  136, 139, 142, 145, 148, 151, 154, 157, 160, 163, 166, 169,
                  172, 175, 178, 181, 184, 187, 190, 193, 196, 199, 202, 205,
                  208, 211, 214, 217, 220, 223, 226, 229, 232, 235, 238, 241,
                  244, 247, 250, 253, 256, 259, 262, 265, 268, 271, 274, 277,
                  280, 283, 286, 289, 292, 295, 298, 301, 304, 307, 310, 313,
                  316, 319, 322, 325, 328, 331, 334, 337, 340, 343, 346, 349,
                  352, 355, 358, 361, 364, 367, 370, 373, 376, 379, 382, 385,
                  388, 391, 394, 397, 400, 403, 406, 409, 412, 415, 418, 421,
                  424, 427, 430, 433, 436, 439, 442, 445, 448, 451, 454, 457,
                  460, 463, 466, 469, 472, 475, 478, 481, 484, 487, 490, 493,
                  496, 499, 502, 505, 508, 511, 514, 517, 520, 523, 526, 529,
                  532, 535, 538, 541, 544, 547, 550, 553, 556, 559, 562, 565,
                  568, 571, 574, 577, 580, 583, 586, 589, 592, 595, 598, 601,
                  604, 607, 610
    4    7 N      9

molecular fragmentation (1/2 indicates fragments):
111111111111222222222222222222222222222222222222222222222222222222222222
222222222222222222222222222222222222222222222222222222222222222222222222
222222222222222222222222222222222222222222222222222222222222222222222222
222222222222222222222222222222222222222222222222222222222222222222222222
222222222222222222222222222222222222222222222222222222222222222222222222
222222222222222222222222222222222222222222222222222222222222222222222222
222222222222222222222222222222222222222222222222222222222222222222222222
222222222222222222222222222222222222222222222222222222222222222222222222
222222222222222222222222222222222222
# atoms in fragment 1/2:    12   600
 fragment masses (1/2) :       62.09     3603.06
CMA distance (Bohr)    :   2.321
constraining FC (au)   :  0.0500

           -------------------------------------------------
          |                 G F N 2 - x T B                 |
           -------------------------------------------------

        Reference                      10.1021/acs.jctc.8b01176
      * Hamiltonian:
        H0-scaling (s, p, d)           1.850000    2.230000    2.230000
        zeta-weighting                 0.500000
      * Dispersion:
        s8                             2.700000
        a1                             0.520000
        a2                             5.000000
        s9                             5.000000
      * Repulsion:
        kExp                           1.500000    1.000000
        rExp                           1.000000
      * Coulomb:
        alpha                          2.000000
        third order                    shell-resolved
        anisotropic                    true
        a3                             3.000000
        a5                             4.000000
        cn-shift                       1.200000
        cn-exp                         4.000000
        max-rad                        5.000000


          ...................................................
          :                      SETUP                      :
          :.................................................:
          :  # basis functions                1224          :
          :  # atomic orbitals                1224          :
          :  # shells                          816          :
          :  # electrons                      1626          :
          :  max. iterations                   250          :
          :  Hamiltonian                  GFN2-xTB          :
          :  restarted?                      false          :
          :  GBSA solvation                  false          :
          :  PC potential                    false          :
          :  electronic temp.          300.0000000     K    :
          :  accuracy                    1.0000000          :
          :  -> integral cutoff          0.2500000E+02      :
          :  -> integral neglect         0.1000000E-07      :
          :  -> SCF convergence          0.1000000E-05 Eh   :
          :  -> wf. convergence          0.1000000E-03 e    :
          :  Broyden damping             0.4000000          :
          ...................................................

 iter      E             dE          RMSdq      gap      omega  full diag
   1  -1039.6691544 -0.103967E+04  0.407E+00    8.00       0.0  T
   2  -1039.7872202 -0.118066E+00  0.241E+00    8.18       1.0  T
   3  -1039.8123334 -0.251132E-01  0.230E-01    8.04       1.0  T
   4  -1039.8164287 -0.409527E-02  0.919E-02    8.05       1.0  T
   5  -1039.8169641 -0.535426E-03  0.296E-02    8.07       1.0  T
   6  -1039.8169956 -0.314143E-04  0.137E-02    8.08       1.0  T
   7  -1039.8170006 -0.507106E-05  0.188E-03    8.08       2.2  T
   8  -1039.8170011 -0.452453E-06  0.620E-04    8.08       6.5  T
   9  -1039.8170011 -0.177563E-07  0.200E-04    8.08      20.2  T

   *** convergence criteria satisfied after 9 iterations ***

         #    Occupation            Energy/Eh            Energy/eV
      -------------------------------------------------------------
         1        2.0000           -0.7358559             -20.0237
       ...           ...                  ...                  ...
       807        2.0000           -0.4590142             -12.4904
       808        2.0000           -0.4587525             -12.4833
       809        2.0000           -0.4578276             -12.4581
       810        2.0000           -0.4575542             -12.4507
       811        2.0000           -0.4563978             -12.4192
       812        2.0000           -0.4554590             -12.3937
       813        2.0000           -0.4484358             -12.2026 (HOMO)
       814                         -0.1514894              -4.1222 (LUMO)
       815                         -0.1377562              -3.7485
       816                         -0.1309243              -3.5626
       817                         -0.1235430              -3.3618
       818                         -0.1135027              -3.0886
       ...                                ...                  ...
      1224                          0.3830640              10.4237
      -------------------------------------------------------------
                  HL-Gap            0.2969464 Eh            8.0803 eV
             Fermi-level           -0.2999626 Eh           -8.1624 eV

 SCC (total)                   0 d,  0 h,  0 min, 16.895 sec
 SCC setup                      ...        0 min,  0.036 sec (  0.211%)
 Dispersion                     ...        0 min,  0.087 sec (  0.514%)
 classical contributions        ...        0 min,  0.021 sec (  0.123%)
 integral evaluation            ...        0 min,  0.717 sec (  4.244%)
 iterations                     ...        0 min,  6.248 sec ( 36.982%)
 molecular gradient             ...        0 min,  9.714 sec ( 57.499%)
 printout                       ...        0 min,  0.072 sec (  0.426%)

         :::::::::::::::::::::::::::::::::::::::::::::::::::::
         ::                     SUMMARY                     ::
         :::::::::::::::::::::::::::::::::::::::::::::::::::::
         :: total energy           -1033.452907728141 Eh    ::
         :: gradient norm              0.000292050007 Eh/a0 ::
         :: HOMO-LUMO gap              8.080323008490 eV    ::
         ::.................................................::
         :: SCC energy             -1039.817001091947 Eh    ::
         :: -> isotropic ES            5.737058150174 Eh    ::
         :: -> anisotropic ES         -1.313217241138 Eh    ::
         :: -> anisotropic XC         -0.096747917772 Eh    ::
         :: -> dispersion             -0.635406622843 Eh    ::
         :: repulsion energy           6.240859005377 Eh    ::
         :: add. restraining           0.000000000000 Eh    ::
         :: total charge               1.000000000000 e     ::
         :::::::::::::::::::::::::::::::::::::::::::::::::::::

      ----------------------------------------------------------- 
     |                       L-ANC optimizer                     |
      ----------------------------------------------------------- 
          low memory version by Sebastian Ehlert

          ...................................................
          :                      SETUP                      :
          :.................................................:
          :   energy convergence        0.5000000E-05 Eh    :
          :   grad. convergence         0.1000000E-02 Eh/a0 :
          :   optimization log               true           :
          :   writing optlog all                1     steps :
          :   Hessian reset                    20     steps :
          :   maximium step len.        1.0000000     a0    :
          :   LBFGS images                     20           :
          ...................................................
 * calculating model hessian...
Using Lindh-Hessian (1995)
 Shifting diagonal of input Hessian by   1.001215236261487E-002
 Lowest  eigenvalues of input Hessian
    0.010000    0.000000    0.000000    0.000000    0.000000    0.000000
    0.000000    0.010026    0.010031    0.010062    0.010108    0.010130
    0.010145    0.010188    0.010192    0.010207    0.010210    0.010218
 Highest eigenvalues
    1.439765    1.441338    1.443672    1.444580    1.445102    1.491094
 

........................................................................
.............................. CYCLE    1 ..............................
........................................................................
   1  -1039.8168479 -0.103982E+04  0.110E-03    8.08       0.0  T
   2  -1039.8168479 -0.151049E-07  0.670E-04    8.08       6.0  T
   3  -1039.8168479 -0.522027E-08  0.686E-05    8.08      58.9  T
     SCC iter.                  ...        0 min,  1.811 sec
     gradient                   ...        0 min,  9.525 sec
 * total energy  : -1033.4529072 Eh     change        0.5555737E-06 Eh
   gradient norm :     0.0004535 Eh/a0  converged?    E=F G=T D=F
   step length   :     0.0132551 a0

........................................................................
.............................. CYCLE    2 ..............................
........................................................................
   1  -1039.8169100 -0.103982E+04  0.696E-04    8.08       0.0  T
   2  -1039.8169100 -0.580189E-08  0.425E-04    8.08       9.5  T
   3  -1039.8169100 -0.223872E-08  0.413E-05    8.08      98.0  T
     SCC iter.                  ...        0 min,  1.851 sec
     gradient                   ...        0 min,  9.528 sec
 * total energy  : -1033.4529083 Eh     change       -0.1145508E-05 Eh
   gradient norm :     0.0001027 Eh/a0  converged?    E=T G=T D=F
   step length   :     0.0077385 a0

   *** GEOMETRY OPTIMIZATION CONVERGED AFTER 2 CYCLES ***

------------------------------------------------------------------------
 total energy gain   :        -0.0000006 Eh       -0.0004 kcal/mol
 total RMSD          :         0.0003321 a0        0.0002 Å
 total power (kW/mol):        -0.0007744 (step)   -0.0001 (real)
------------------------------------------------------------------------

 L-ANCopt (total)              0 d,  0 h,  0 min, 30.773 sec
 setup                          ...        0 min,  0.022 sec (  0.070%)
 model hessian                  ...        0 min,  4.665 sec ( 15.159%)
 ANC generation                 ...        0 min,  1.538 sec (  4.998%)
 coordinate transformation      ...        0 min,  0.013 sec (  0.043%)
 Rational function              ...        0 min,  0.002 sec (  0.007%)
 singlepoint calculation        ...        0 min, 24.513 sec ( 79.656%)
 optimization log               ...        0 min,  0.016 sec (  0.052%)
 hessian update                 ...        0 min,  0.000 sec (  0.000%)

================
 final structure:
================
612
 xtb: 6.5.1 (579679a)
H           -2.35552181136053       -0.47089897020762       -1.21455352417484
C           -1.30311870448760       -0.53326016327317       -1.49199184509371
H           -1.13308119196436       -1.42494483353919       -2.09037997071483
C           -0.43937713965549       -0.57575280022366       -0.25111469566591
H            0.58176895434932       -0.35511856213650       -0.54527113612743
H           -0.48344672602056       -1.56335656419230        0.19361573508742
O           -0.95565773677231        0.57379412774351       -2.30830835418367
H           -0.69334093635092        1.33099176894015       -1.73998004254498
N           -0.89721587540866        0.43044962225842        0.73158777083357
H           -0.07354139054419        0.96786850344079        1.04876558537425
H           -1.29596594271268       -0.04786362243021        1.57147007310279
H           -1.60297756601670        1.07885111587072        0.30310012481655
O            2.20053999300794        6.00640390419778        3.30482490243631
H            1.70341359386925        5.44824014684256        3.93083552229130
H            3.04975071071494        6.16569750449364        3.72464461329410
O            3.52903572675496        4.31074453877025       -3.28895399050984
H            3.51091445947612        5.25606115585278       -3.51457471942945
H            3.87592580401036        4.19441088658436       -2.38262983295028
O            6.26661154514875        3.44206146362028        0.58889221772074
H            6.93119533644554        4.10302077167673        0.31354256984937
H            6.75108128781856        2.58207903969994        0.54183497733637
O           -3.23502153427420        2.01906429177688        2.17384951181727
H           -2.37222025553686        1.97382100639586        2.61132969959731
H           -3.59330140956541        1.11032416377615        2.12404488313958
O           -5.29739715341614        1.19226801251800       -0.23029115007023
H           -5.06380232485741        0.70462222408950       -1.05362527883344
H           -5.69531312970152        0.52556094618136        0.35224497077555
O           -1.63707452482637       -3.83816467261329       -3.92205993186603
H           -1.03892555438844       -4.21000383836033       -4.61196623704713
H           -2.50254257039024       -3.74919732491501       -4.36146138082863
O            1.59114440794107        1.21821084656990        1.36917184562557
H            2.43890293405890        1.36550762057687        0.91230811931220
H            1.72199194566969        1.48289032855283        2.30336095172713
O            4.61724326386801        6.53291631948901       -0.07507581410423
H            5.01243555383653        7.39261358905429        0.06994716904063
H            4.72519207026816        6.04307560264814        0.76839684771000
O            2.34871535253384       -1.28719585922356        1.13908836174569
H            1.62950202894865       -1.89849240139834        1.36438039879155
H            1.98756688067121       -0.38962213010302        1.28958355995157
O           -1.72853198645162       -3.93062180331434       -1.04644018086312
H           -0.77344576756490       -3.95495260566795       -0.88363106931639
H           -1.85001281284543       -3.63630940901881       -1.95902585810781
O            1.04817123827094        4.59522591986162       -2.37733909318113
H            1.26743762519777        5.38124279702474       -1.83703657725708
H            1.91688917161815        4.31737498435570       -2.74303060070541
O            6.06243716995938        2.99264939229549       -3.14316675605998
H            5.98572180773487        3.87467169195427       -2.73663368354396
H            5.65086776365346        3.03792587950056       -4.02653744758806
O           -4.09931626248275       -0.50429951923038        2.06865752001184
H           -4.11808926285178       -0.90437181954705        2.95537232477419
H           -3.55885121894403       -1.11084524553872        1.51265183923238
O            0.60028878375263        1.41195264043475        7.43623635126574
H            0.36047804621181        1.03213990930213        6.55770313819133
H           -0.20933414907889        1.40502406959982        7.95089270696988
O           -0.95391041284634        2.03136502735387        3.61581137262411
H           -0.36129527435938        1.33326649136983        3.96852070895204
H           -1.11640619595251        2.63192007406250        4.36436005876036
O            4.98953645761484       -1.68628220815079       -2.34876119095374
H            5.18743102970869       -2.51229638247727       -1.87993968914709
H            4.05108310208341       -1.48413687922801       -2.11712558500913
O           -2.40696245655197       -5.67695100286336        5.25627255651565
H           -2.47340012270030       -5.14812560240617        6.06155133221169
H           -3.25514586239625       -5.54030805025831        4.80845867916957
O            0.30377604063887       -2.78584863956659        2.09898569826047
H            0.99074299166683       -3.13908345983610        2.69153678632925
H           -0.15676482750205       -3.57709528693035        1.74448218609377
O            0.05947568330608        0.13918352355990        5.17612570938505
H           -0.53033814586813       -0.63131325966334        5.14271269219642
H            0.92736444773605       -0.23896355290607        4.92912111707334
O           -1.44494299137069       -1.36118378275109        7.94780426741653
H           -1.76652910388245       -0.45053043736478        7.98359155365025
H           -1.08078201226099       -1.48452227344488        7.05660767585114
O            4.51879924432959        2.48262577540682        2.63422428910659
H            5.48347170962032        2.35852611828544        2.63048184347709
H            4.14492796947275        1.67493652399293        3.02889375289074
O           -1.95061185708115        3.96165894253925       -2.28013748474405
H           -2.23621604036857        3.27912550348872       -1.64571539685279
H           -1.57583562357502        4.70538064503679       -1.77628587139493
O           -4.49004871772005        2.90869186785186        4.25577423692620
H           -4.10073794615279        2.74288159989530        3.36426626678382
H           -4.22746614253774        2.12677656175988        4.76300706228698
O           -2.59569081958832       -2.22427515654161        0.85042194422553
H           -2.46538491059234       -2.76268088073572        0.05482950526378
H           -2.56366014523411       -2.84523802061143        1.60002525742075
O            2.60817163962792       -1.00368997538961       -1.51733390615648
H            2.63463812795324       -0.03767184905178       -1.67446999148579
H            2.62333018060656       -1.15332170270631       -0.54856203636253
O            8.56276812278848        2.31953629745270       -2.37167064492136
H            9.04528707581550        1.87646323131792       -3.08415430909094
H            7.68213619003379        2.55927018673351       -2.72641422567675
O           -2.68087246586181        2.12232968899571       -0.41238836295664
H           -3.57733249159746        1.75419329370864       -0.32563066452738
H           -2.65212420147371        2.86889754015158        0.22681637470507
O            2.59321824788470        1.63699164626400       -1.98005527767504
H            1.72655273778938        1.87684485029158       -1.60279954742975
H            3.22485066628837        2.25820646237196       -1.57758039357427
O            0.99957405872303       -2.97527980114890        8.08417864186884
H            0.11946120031719       -2.65820386439360        8.30789545206746
H            1.55976115940703       -2.17930542691232        8.02736277824424
O           -2.52100090115579       -3.77852542147323        3.06894658347915
H           -1.61162437391020       -3.98462293704889        3.32853400798202
H           -2.88820888647014       -4.61369897876395        2.72196602290593
O            1.02960750702451       -0.26272033102362       -7.42270446394391
H            0.38946806174394       -0.98630096230324       -7.54684704414027
H            0.50344848460748        0.49849408647231       -7.11515216308699
O            2.12087190599517        6.72101880327910       -1.15332481765659
H            1.57408584654226        6.94914202537968       -0.38401658450556
H            3.01380384000231        6.57701325290276       -0.79412548848641
O            0.96822980950640        4.16951365428725       -6.54210295892785
H            0.50212323770425        4.78499308236900       -5.94762661319692
H            0.34694253661532        3.45374205321046       -6.77096963474685
O            5.13727214053619       -4.74515408968155       -4.14651541902153
H            5.03226254563567       -3.86369960230290       -4.58096296683813
H            6.08053010135007       -4.78855769221535       -3.94793655864626
O           -4.27071103698373       -4.69877038537568       -0.20352750535544
H           -4.55205634378041       -5.56452427238432       -0.53045390037347
H           -3.40124688677837       -4.51836398739468       -0.58086024220471
O          -10.85404519210776       -1.53843576776791        2.79058660907241
H          -11.23437301121442       -0.65172748919151        2.61677180326114
H          -10.88074283382174       -1.99405192068595        1.93154113181140
O           -8.00739221267637       -3.14571016028024        1.38885850178462
H           -7.75888352533553       -3.82027923546935        0.71121315481549
H           -7.37339893664415       -2.40876959127271        1.28259160478185
O           -1.28518089708705       -0.84553832182816        3.00372125418030
H           -0.67274679632600       -1.56005415313065        2.73513515816929
H           -2.00784776016083       -1.28769423113272        3.45502534921684
O           -0.40408438821231        2.61056940804110       -3.98673462644608
H            0.52567156051417        2.81624880895524       -3.85292551932466
H           -0.92517062828712        3.16814337350174       -3.38033411934306
O           -2.20696618170055        6.88464990711004       -3.44616188506430
H           -3.11780592093395        6.76316148799706       -3.13243147093802
H           -1.66441271712392        6.79972309641279       -2.64492279347302
O           -6.62194619269791       -2.05018518809148        3.89142738663427
H           -6.19742498170908       -2.51410489150126        3.14989966753748
H           -7.55612874538452       -2.32883869545448        3.94027788878038
O            6.27893068314361        2.59299458935348        5.12621034721420
H            6.59995540484236        2.12985585629292        4.31963595661518
H            6.66906769044617        2.12437061979203        5.89837921882508
O           -5.36572131982589       -5.73464376278867       -3.18387009439401
H           -6.09616552505783       -5.09067253602339       -3.16476027734098
H           -5.53380864576562       -6.35698767262704       -2.46451523997306
O            2.67588830307101        4.06496864806230        1.50543747194941
H            2.61877702304976        4.87974535905444        2.03550015057038
H            3.29810657598710        3.48486336283053        1.98669814562891
O            5.54753836724398        0.89349861225380       -1.62401012650003
H            5.64844336370850        1.64039222667062       -2.24577712056611
H            5.31375322141026        0.10162717305772       -2.13106654087002
O           -0.07690943594157       -4.70556127598157        4.25997661609274
H            0.36034222101590       -5.25289792278202        3.58697790743090
H           -0.80217611963496       -5.23887018079393        4.64110633483694
O           -5.00911591725300       -4.85204050684112        4.41682580904627
H           -5.92131867862697       -5.02199355451044        4.11470553467465
H           -5.10946874434410       -4.32466972163444        5.21544109786338
O            3.23290620962091       -4.06968789299879       -2.23831541557802
H            3.47045850622802       -3.96496228182503       -1.30300661332454
H            4.03739227727638       -4.27578815964021       -2.73771341298889
O            3.58869382652241        5.18334782386256       -6.22761329599100
H            3.42538184417675        5.88977329168378       -5.59400449483148
H            2.72406219229125        4.90729729123969       -6.56051218705508
O            4.02318614507069        3.63965759226877       -0.78719337099376
H            3.43349850725798        3.91218125951760       -0.06155394119813
H            4.90851814436053        3.54253689546508       -0.37184415093086
O            2.43717881995997       -1.55154564607054       -5.53982618225828
H            2.06587038853092       -1.05287885003133       -4.78853550841750
H            2.00037156710173       -1.16286301921902       -6.32348499171430
O           -3.76357388963989       -0.54429324346816       -5.29066653790268
H           -2.89222544988288       -0.75328656147169       -4.91143938010627
H           -3.65096111011194       -0.66457490390189       -6.24399004508111
O           -0.21580992947848       -4.68414900323087       -5.97100552877038
H           -0.41261073514083       -3.95129213042746       -6.57949664503320
H            0.69932666805875       -4.53519728621711       -5.66319309761596
O            4.35979549891822        4.61448872828446        4.79834345080671
H            3.84235023581916        4.53914095387313        5.60419868060192
H            5.08260950675542        3.97615624811837        4.90122793618194
O           -0.51431325383005        1.85982603853242       -6.53320674710822
H           -0.47202877621315        2.00389657196928       -5.56347462211465
H           -1.45769858623928        1.88939162290619       -6.73754034890980
O            4.06068315673160        0.96330690027869        0.46396649163879
H            4.54741566554095        1.06168473943836       -0.38253530350499
H            4.43635430546674        1.60355517855724        1.08978705325248
O           -1.39612496456142        3.38715933576608        5.95840060073075
H           -2.14972089019287        3.99181519661963        5.97552282421121
H           -1.58374420015540        2.68417119118297        6.60792442688796
O            3.93752148624180        1.38742178756496        5.53920979076627
H            4.19261467597532        0.58046412414073        6.00868375013441
H            4.77518762178841        1.85028887290795        5.31913038389563
O            1.09568215815485        0.12092938554041       -3.97711279274064
H            1.43332881364691        0.97018552515834       -4.28938442484867
H            0.46557802557928        0.33030428656730       -3.26367485579142
O           -5.50788202334725       -2.59950813108269       -6.78746757925503
H           -4.99302750871859       -2.99083501657389       -6.04360088361398
H           -6.39529553511268       -2.98094926781000       -6.70227920489219
O           -1.18785352171895       -1.28219923210804       -4.70845495007629
H           -1.17354811147423       -2.12026580223115       -4.20628925214820
H           -0.36723609625318       -0.80749038623411       -4.49224966997906
O           -2.41800314520992       -6.94359060627785       -0.25209159281469
H           -1.45734583157033       -7.09674443346729       -0.17989123170751
H           -2.51472893588296       -6.59411909549114       -1.16388462291490
O            7.98468725001670       -4.60228022501490        2.79284213626539
H            7.83958841195020       -4.11341534229955        1.95751813502218
H            8.34171003964083       -5.45349586790114        2.53535646647947
O            3.07684234980854       -6.46945015259624        0.21900410438195
H            3.96168588751963       -6.80099731807693        0.04799893200364
H            2.61241284201634       -6.52593615152999       -0.62858021268579
O           -5.86627035800611        0.51745756305566        4.11285337652092
H           -6.34930721493026       -0.32385067737092        4.01347406375095
H           -6.43019066895366        1.16941356257500        4.56568143111277
O            8.33493867044202        4.37797979988461        4.18641918518502
H            7.59893244392341        3.95751949657119        4.65006142104722
H            8.94391630941806        3.66234474469690        3.95333002159276
O           10.24169038495724        4.03419188697887       -1.32945006406034
H           10.57858994205243        4.62260020505010       -2.00475001186796
H            9.54939305955856        3.47841194771073       -1.76937615385683
O            8.10096418721025        5.25031094423634       -0.10672798312256
H            8.98528284180390        4.90551919296275       -0.30220035592139
H            8.11872763576281        5.70362761217588        0.77519447971521
O           -4.48726850780295       -0.09001978884283       -2.32497660644880
H           -3.98890697556650        0.56563630678714       -2.85892739116769
H           -5.21347180332884       -0.42373079093491       -2.88271412510679
O            5.20509415069262        3.07234683897856       -5.73233188683517
H            4.74142677027179        2.34225316908191       -6.16735471373638
H            4.68523293352615        3.87740948593595       -5.92575410353326
O           -3.00835951663937        0.68687246044160        5.06529933992755
H           -2.27472234362153        0.89033632078187        4.46627543236996
H           -3.27366201486184       -0.22869975228792        4.87700538612746
O           -9.08228304098991        0.33000842516722        0.16541744939801
H           -8.72712117350979        1.18715578249520       -0.12600730551901
H           -8.89576903276854        0.27863964528725        1.11881435362161
O           -8.53237184661678        2.06565992758679       -5.36917351512373
H           -8.40285579504069        1.10618400645128       -5.31175114994022
H           -9.41897599935873        2.22376117803510       -5.03540395651925
O            8.45276438596231       -5.99483904723494       -0.24578298744886
H            9.09239078449670       -5.99134989394774       -0.95780214871379
H            8.31602700146283       -5.05295599795897        0.00182244724076
O            7.93095447651414       -3.41437754145198        0.37523725755973
H            7.07501826961383       -3.40611719105311       -0.10372849097191
H            8.58683931240401       -3.05349338074655       -0.24489674783710
O           -4.81052201543358        2.73419279681994        7.17636474733026
H           -4.40036650710527        3.57011522012543        6.93063756270363
H           -5.63724515841143        2.70960761489564        6.66443014428167
O            0.09177118691257        3.49107643991333        1.53689362446172
H           -0.16516637242508        2.99503171925924        2.33316328712535
H            1.04683133396683        3.69804835995147        1.59861934855493
O           -6.81961008498619        4.47843369820637        3.58164741686681
H           -7.50201550235540        4.90750039942470        3.02156497256450
H           -5.98722259317497        4.94851124380424        3.39541138672986
O           -2.29486120193460        4.38534224334226        0.95101395937773
H           -1.32915923651518        4.27849880760618        1.02912937157092
H           -2.58732162422869        4.43033525802927        1.86886026123155
O           -1.83747928173847        7.42338282956398        2.03333827939212
H           -1.88269170575591        6.61244690665287        2.57564638328337
H           -2.49906936272672        7.32355996381315        1.33933998988686
O            2.64522804882317       -3.48974939346159        3.16951083632959
H            2.93140271604519       -4.35626567117933        3.50446448414210
H            2.97305322077616       -3.42694153695436        2.25542535907347
O            7.55246990907636       -0.83807022942467        1.89701882966533
H            8.02783971048538       -1.38486178924561        2.54671180997147
H            8.20453544527620       -0.68795725705799        1.18017176480835
O           -0.85794985681592       -2.24082050373413       -7.16120369574995
H           -0.98935206860388       -1.87487372948131       -6.25328580408747
H           -1.68575794962567       -2.05514795818908       -7.62052235903967
O           -8.52965941769506       -0.21947411141772        2.82167161447990
H           -9.28294995541752       -0.84526349432349        2.84927355750880
H           -8.69724900833083        0.41790047199183        3.52564978712444
O            4.31209380989346        0.45160578983022       -4.06660812792314
H            4.02382954671374        0.48365165093710       -4.99047756243199
H            3.64094210887904        0.90054215348986       -3.53836747329476
O           -3.19692181804454        2.41073560992816       -6.32997931692941
H           -3.02528474962438        3.25160951641371       -5.86785771926523
H           -4.05616546524747        2.49682268955454       -6.74897103653864
O            6.16166734224723       -0.65554174567387        4.36770981726126
H            6.17266887186811       -1.54840672949027        3.97820137948748
H            5.80662212300654       -0.73713198057682        5.26387739457611
O            4.52158884736961       -3.16976365364487        5.57856010818831
H            4.55709808869039       -3.00636482880787        4.61883082140234
H            3.63635846546879       -3.53543872767415        5.76488173203848
O           -0.10157763878696       -6.78206074827316       -3.92232684628177
H           -0.97718608066034       -6.74912171735481       -3.51196960612492
H           -0.16904957240409       -6.30096307686606       -4.75340599014531
O            8.15272632012336        5.10387886259213       -4.06493546089149
H            7.46112263028146        5.24978030830712       -3.39930926345099
H            8.10823137345317        5.84641858144570       -4.66704916221674
O            5.92487288567659       -3.95195613829600       -1.24648759939124
H            6.55569251766384       -3.99997739364103       -2.00092792443429
H            5.76677906046671       -4.87873701458808       -0.97493811739758
O            3.86512765159804       -0.07868395572364        3.12757192914151
H            3.63129339169014       -0.61228440449316        2.35073762464667
H            4.77065345558777       -0.29660104725068        3.41762569744348
O            0.92870627227046       -4.12919935020061       -0.55992861054419
H            1.75377931676274       -3.98875857009238       -0.07873232294632
H            1.01821951201570       -3.63734092826705       -1.40967795675728
O            2.26004814790389       -1.27523618152866        4.80335873143285
H            2.86000767259642       -0.72775871759241        4.24648558333454
H            2.27776486442611       -2.15363736418223        4.39403846456176
O            9.42366230208460       -0.74480405677746        0.01356089844938
H            8.82284780294786       -0.86097871577198       -0.75651981634982
H            9.75432063902698        0.16624816482829       -0.04411437535253
O           -5.51409091498491       -2.65979512990781        6.19499774942290
H           -6.10243558041970       -2.49533425059394        5.41598546959619
H           -5.60191043202911       -1.85693074523119        6.72880521026735
O           -2.94502690703461       -3.48489887404611        6.95334251219948
H           -3.88213644975145       -3.26450386177991        6.86582767988392
H           -2.57528968522424       -2.88806198615220        7.62212076556963
O           -9.56565797932182        4.06423948509461       -2.32408802372233
H           -8.65526211913003        4.09206764985866       -2.66152579585145
H           -9.90924962830522        3.19640415637230       -2.55988211895899
O           -3.72428726992088       -2.64510183672265       -2.44278177427673
H           -4.43165896395660       -2.92384213554402       -1.83045635377767
H           -3.78758743799540       -1.67566794546779       -2.43684816682848
O            0.96435610305371        4.29982349298922        5.02327026626843
H            0.11802451590676        4.04331403535606        5.42810617943507
H            1.62570458317170        4.06740925762076        5.72034822259046
O           -8.43422503155234        5.60645294890544        1.76955789672376
H           -7.93604134411465        5.57636218042488        0.93487005167400
H           -9.30751048032321        5.27254918140390        1.53876565840195
O           -6.08364392557744       -1.34544646396556       -4.03984140839790
H           -6.85903287291196       -1.00020685743225       -4.51572907526385
H           -5.32355278749266       -1.30706399477197       -4.64559620747901
O           -7.59438433833889        2.45730549052250       -0.67366589120506
H           -6.72226698988176        2.13108234971451       -0.36024717451684
H           -7.56751816054045        3.42711772133649       -0.67223633062525
O           -2.31897298663132        1.32019377099818        7.50302138398691
H           -2.58557350202833        0.99132715803528        6.60526908086358
H           -3.11852144655599        1.73048893771737        7.84948344907484
O            6.11132440758925       -5.31478064231452        4.82249787125869
H            5.82752369820266       -4.51494143129502        5.29272811575491
H            6.75771063736357       -5.03745446025672        4.15714438620572
O            5.25060286748391       -1.47161487642991        0.70351390121969
H            4.76160980998576       -0.63161971896105        0.60213704971898
H            6.16140120588415       -1.22988135243728        0.96252855903900
O           -7.55352535543050       -4.88358614530755        3.42946024728355
H           -8.20388396019688       -4.62356076002172        4.08899934446966
H           -7.69492152593097       -4.25031762291265        2.69123330709257
O            0.58357110835382        6.81974347426504        1.08936451994011
H            1.13528375059493        6.59179740402688        1.84750251196612
H           -0.24192492492585        7.19763906751021        1.46528185974499
O           -4.22342058300848       -3.70767061326935       -4.74441024710804
H           -4.16429782631898       -3.20443091289272       -3.88460815194563
H           -4.62786644105686       -4.54829567824773       -4.50135994382938
O          -11.65324174038879        1.77600250628355       -0.68152073645358
H          -12.50055654728739        1.93693144656886       -1.09526387197743
H          -11.02994696243077        1.54447900566427       -1.39942835359947
O           -8.24766534993096       -0.50810353727760        6.00712437837671
H           -8.66735208642624        0.32600258326005        5.77731067487414
H           -7.39418907713550       -0.29999526925745        6.41534031216364
O           -9.10458729495262       -2.77433011074542        4.60992416913085
H           -8.97693946051336       -2.08898712605740        5.28385028224299
H           -9.85737336328586       -2.49146740464708        4.07194073340219
O           -5.86481311033797       -2.69912443845914       -0.89230653795726
H           -5.59921013907759       -2.33093555209622       -0.04564099650403
H           -6.61226395672684       -2.14716032777462       -1.20451128504682
O           -8.01481731697511       -3.41795071929116       -5.98601680993339
H           -8.54762346780140       -4.15691840910735       -6.27496834087220
H           -7.72509685981632       -3.61997748138381       -5.05223997698980
O            9.95240191886721        1.36788928280085       -4.55775178292378
H            9.27770616562290        1.79064318377301       -5.12112244202241
H           10.81023474371783        1.64346548386093       -4.87949936211120
O            0.23465589020315       -6.77359636404971       -0.41958943271924
H            0.61356817793257       -7.24595228480935       -1.16373314758660
H            0.51411987963597       -5.84133799842332       -0.52936189512044
O           -5.15879280261526       -3.38827533422576        2.01464525804936
H           -4.89261890757735       -3.96782831511268        2.73969069428754
H           -4.85506867591662       -3.83357204128022        1.20401579252511
O           11.77209351846733        0.97674657287822        2.07154333617572
H           11.43500692181449        1.16549500151754        1.15826195589465
H           12.60470741388743        1.44206918045906        2.15245726615567
O           -5.12976546206784       -7.28805529908742       -0.85242848333862
H           -4.24617483016580       -7.62428378604441       -0.65767380776462
H           -5.64627920964865       -7.36363792058475       -0.04030173875463
O           -6.34433392054592       -0.01935538961315       -7.16764701174436
H           -5.92310622549414       -0.89247051287567       -7.06870453632865
H           -7.20630004360075       -0.11631729340079       -6.75111631083722
O           -1.07366051987716        6.20666491270925       -1.04633498739814
H           -0.39995512230760        6.29394169150000       -0.35770145343716
H           -1.91227527938889        6.47580386825149       -0.62635070648363
O            3.54879582024129       -3.62992882620906        0.50399544587793
H            4.10197008811063       -2.83304095095161        0.45323666961107
H            4.11605821083502       -4.34945830084058        0.83484769183967
O            0.25968926436264        2.51799441530982       -0.93546071452501
H            0.21234380588497        2.81516792028371       -0.00572770004592
H            0.38739524190078        3.32990246770512       -1.46228744141443
O            3.46728542363443        1.07719338554877       -6.61461603137379
H            2.90637345145748        0.59590167875005       -7.22979897732108
H            2.85948824353291        1.61391954765582       -6.06504703225645
O           -5.51677567228286        5.03330129895044       -5.24040886852403
H           -5.70758081322722        4.59848940108899       -6.07538287242343
H           -4.57501302241007        4.82896511200162       -5.03847263856795
O           -9.01815176751629        2.48823702306562        2.13033515922129
H           -9.35300284700546        3.13369216186639        1.47523351674395
H           -8.05867594303376        2.38170716024334        1.96406776201016
O           10.90098966872800        1.50114275067371       -0.35076993059885
H           10.81057279534886        2.41756009284345       -0.64945184174259
H           11.39521597225602        0.99056359374291       -1.03554160129074
O           -4.53997260096643        5.56553710313470        2.60612080654610
H           -4.59856617437004        4.95152967575997        1.85328150302958
H           -4.52887032049410        6.44502427312940        2.22484588777891
O           11.65839121065994       -2.16316299775887       -0.04567632222918
H           10.81993704718010       -1.64863297072685        0.04643745131154
H           11.97031901336464       -2.26938152474585        0.85863234032199
O            1.46589875098250       -6.21564504126305        2.44452050671811
H            1.91334182294338       -6.32191440050235        1.58682926727301
H            2.15128511301906       -6.38241851077129        3.10195357087053
O           11.73980022587060       -1.66634979171227        2.70695307414566
H           11.69265882328075       -0.71480266229996        2.47500901721181
H           12.34219612896671       -1.73939978987516        3.44733090009723
O           -2.61761316144722       -6.10903357064630       -2.80460716021299
H           -2.24476189206761       -5.24346793301516       -3.06766938161621
H           -3.56036802352249       -6.07020983022100       -3.02101822891946
O            7.02324385343101        0.45514548661011       -4.18098426044828
H            6.04577431086557        0.44724397413271       -4.16536872212524
H            7.28233693689768        1.23928632910858       -4.68631120864947
O           -5.52850954553579       -0.02412464157403        6.75516218336751
H           -5.38272506032148        0.16484262636364        5.80503670655877
H           -5.28549740857546        0.78095559413886        7.21961718494166
O            9.75557559539968       -3.20347733597367       -1.69336643134559
H            9.75007190383192       -2.41972475920903       -2.26963772188867
H           10.59256656016786       -3.15626409264473       -1.20974194938355
O            7.67508258936034       -4.04480332675406       -3.23469833448677
H            8.49186180376157       -3.94672791678174       -2.72439085620213
H            7.67400435728857       -3.28192348307781       -3.85497298401223
O            4.96395412822217       -0.89735574343259        6.86369193868188
H            4.84662363304894       -1.81064138830425        6.51180457048130
H            4.17363387163753       -0.77466214971324        7.41851611139786
O            9.18694575742820       -2.26474634032407        3.56606743552427
H           10.06585226245286       -2.19114439658749        3.15831588210732
H            8.87474628554877       -3.17485316476191        3.44004476695380
O           -3.47038093419253       -6.16346758862578        2.13373400533536
H           -3.09171339971175       -6.36082363204853        1.24785437016760
H           -3.09360625181596       -6.79718105020881        2.74473988730292
O           -9.50853840830654        1.78194354199769        4.61732765223061
H           -9.34956026035144        2.23111955609779        3.75251717641495
H          -10.45846594957113        1.67128000919557        4.67783596488924
O           -6.50588314426418       -0.85938137047534        1.16496111566430
H           -5.62877579047564       -0.84051009735847        1.61140235440278
H           -7.14355851321674       -0.52591269617781        1.81528321787874
O           -9.95109801471533       -1.46742078231553       -3.24938248195162
H          -10.31473173500699       -2.35348729150486       -3.19926532141288
H           -9.21344621361218       -1.46270744971861       -2.58356465359214
O            2.65685859663893        6.78761175945072       -3.94138779694995
H            2.50848678370064        7.07767575374987       -3.03081881627354
H            1.76811722379562        6.59434362932660       -4.29358993397105
O            2.11330347905598       -4.07178095660310       -4.83509770450524
H            2.95768984026521       -4.51254942840410       -4.72513541867062
H            2.29410318550753       -3.16852871898880       -5.17939384778222
O          -10.14738852314091        1.25891981670427       -2.93436635292100
H          -10.42220434613267        0.34145093089516       -3.07188079329548
H           -9.16820157682519        1.20282789781326       -2.90536262525388
O           -7.03939408516113        2.56778148864683        5.50238410066953
H           -7.99901108897664        2.47304610241281        5.48802525290596
H           -6.84362660498133        3.29635588111655        4.88219531044201
O           -6.15149696532743       -6.51730069664394        1.60254578830679
H           -6.72578589773276       -6.18814628214802        2.30535017050243
H           -5.23793001861079       -6.29492062991412        1.86414637918843
O            9.61194193091693        2.02807652117979        3.46833011979006
H           10.38367278136437        1.69970612548646        2.98587766444502
H            9.38092300474815        1.33416491475722        4.11950144955328
O           -2.94864116277208        4.55618099957386       -4.70158510831931
H           -2.57880382530960        5.44781338801057       -4.62132395637181
H           -2.73173787291791        4.14012873829931       -3.84049693699399
O          -11.35411704436473        0.99438473755826        2.03513807863481
H          -11.61918392367155        1.08305446341661        1.11079712342115
H          -10.50869003186426        1.47293552504265        2.08195806519450
O           -7.46627653153825        1.01857711204286       -2.87621090729672
H           -6.72182274149088        1.20998892880520       -3.48752370081318
H           -7.41441677423367        1.65133691709412       -2.12678903144924
O           -1.69421796046785        5.14089974942624        3.52460815589996
H           -0.81981549343000        5.09392467466086        3.91513437474600
H           -2.35127965506971        5.15483392508866        4.24134100629465
O            5.81851461839388       -6.55175506722087       -0.57455608452773
H            5.49339633937031       -6.90481854654104       -1.44315392098721
H            6.78848896407786       -6.63180980292654       -0.55786374077770
O            0.13636370888316        5.83257500642020       -4.55812056606163
H            0.29609586636155        5.30606178149930       -3.74254162157842
H           -0.63961174451403        6.37468997472906       -4.37696006906083
O           -0.88693108366968       -5.08239606290972        1.49444040260730
H           -1.31068845250948       -5.16182567052316        0.63509798074643
H           -0.17138454878471       -5.72671338288335        1.52582868755052
O          -10.20855623653151       -2.24019569022635        0.21594118419594
H          -10.04484865387001       -1.30238645351167        0.04661981088605
H           -9.41203198798339       -2.57040082165323        0.69622247643122
O            2.06060147265809       -4.31096072587794        5.97795454141257
H            1.29861927903828       -4.41362477145973        5.38244670274868
H            1.69984686134781       -3.94533905161211        6.80684779237353
O            3.57116951411327       -5.87113525596089        4.23470435201824
H            4.52614329757613       -5.79941316994265        4.46053187260375
H            3.10622684568521       -5.65755627649738        5.05583549863992
O            0.82138905130258       -2.66393267763374       -2.76624140671356
H            1.47540317222779       -2.00842018341814       -2.46876474196220
H            1.27555874761542       -3.22525665599069       -3.41253275918997
O           10.04648865083862       -1.26538285810691       -3.69782303360558
H            9.47777039130033       -1.76329534313976       -4.29711881533046
H            9.92917162931009       -0.34026080598922       -3.96446557401664
O           -7.01811374680321        5.15405603199960       -0.53528746492526
H           -6.75136193362694        5.68064531236832       -1.28981130381784
H           -6.18992573782183        4.80124409000675       -0.12559705314491
O           -7.14394873832206        3.72349301154972       -3.58229098869121
H           -6.63716262901078        4.31603209994534       -4.17138714934140
H           -7.57103372183516        3.08038431421438       -4.17267068856437
O            7.04767599901099        1.63043580114429        2.76550924072310
H            7.12931705889337        0.70757861990276        2.43849612783127
H            7.95777282123519        1.96983365215835        2.76115388953841
O            8.68785569270179       -0.00758725431449        4.99350818452368
H            7.77459382372523       -0.09048323698643        4.64487747120313
H            9.10361356110238       -0.83446992504208        4.71363997212458
O           -7.22502624502072       -4.94149630054582       -0.36719084376572
H           -6.51330252479049       -4.33703374434089       -0.66526689908477
H           -6.81589924451208       -5.58050590087259        0.24301438751078
O            2.55915816494605        3.28043590784773        6.83924562246335
H            3.11804543598443        2.59003092233179        6.42142369824434
H            1.86873675534733        2.77216241474390        7.29217416177186
O           -6.20438940669127        2.66404171293164       -6.92352430874188
H           -6.16242369292740        1.74824848314144       -7.25700765630029
H           -7.13133165981222        2.78217867574957       -6.68018076165693
O           -6.34049224247494        2.30582225081785        2.09164648004092
H           -6.41619675404598        3.07911302221971        2.69178369566234
H           -5.99032962778589        1.58788040593577        2.64786783326024
O           -9.33489682495204       -3.88468879252788       -1.82229202180813
H           -8.79988945164820       -4.50898677373987       -1.31229240345115
H           -9.75075480950454       -3.30600278884826       -1.15539048697371
O            5.23441349511188       -5.31195784789452        1.81309102620220
H            5.57851244766082       -5.86905079271439        1.10190631668929
H            4.70294199006227       -5.86800332578831        2.38903516715010
O            6.25621427746806        5.44804314209182       -2.02923120214921
H            6.99179980363227        5.40753886281073       -1.38601248087878
H            5.51953271158403        5.80745881266985       -1.50830859981989
O            4.69884440831831       -7.19613155479820       -2.85762945932609
H            4.89956179308328       -6.49880799764561       -3.49522771788846
H            3.73143314378209       -7.13355157619485       -2.72204863678537
O          -10.23521347579224        3.98511440996899        0.29362801995167
H          -10.89570065205240        3.29777122578984        0.11734921409652
H           -9.87309351993204        4.19010409893347       -0.59149380375919
O            7.87520785186299        2.78273288729312       -5.51725433044842
H            6.96116565691741        2.89601786257624       -5.83631494072150
H            8.04007678578576        3.57493497338039       -4.97111062002494
O            2.36858019466353       -0.70194893945260        7.46285852509525
H            1.81237357675201        0.08309807728232        7.59856758758966
H            2.29419346485018       -0.93130912011043        6.51378913571422
O            7.62363329501684        1.29867870255876       -0.02906719479678
H            6.88948906239194        0.91613923552642       -0.54548463787325
H            8.19592530926456        1.69054159429094       -0.70393861219356
O            5.42190208207370       -2.84168703139905        3.02233248367435
H            5.62121862684609       -3.74652552191277        2.74994905614946
H            5.28145545490913       -2.34930673694744        2.19041831050362
O           -5.50457780522947        1.50482777211878       -4.55452953607241
H           -5.74823019655045        2.01562684172340       -5.33931410490308
H           -4.90065294615990        0.80854983466653       -4.85968614479875
O            7.76483450938219        6.24060095564766        2.28872287331458
H            6.80420479913574        6.09546845515040        2.33863475814363
H            8.12596657221925        5.66525009127561        2.98889888971469
O           -4.72476846883121        5.97373485037541       -2.52563911201116
H           -4.63558192239842        4.99324027608201       -2.42315779566732
H           -5.21663815543480        6.10418711646483       -3.33974979412829
O           -3.60642902623895        4.93240572293909        5.50354626093488
H           -4.00908351668562        4.17877564398748        4.95696165904259
H           -4.15208090024343        5.69951116122350        5.33316574353494
O           -4.93158075172075        3.91286547698717        0.43391087956366
H           -5.27729605594906        3.15419218106383        0.94813218186198
H           -4.71627253211004        3.56329122186213       -0.44958381115777
O            2.19750368680069        2.58434527005897       -4.81984121000311
H            2.85236054614681        3.09515711273571       -4.31216188394210
H            1.80448556077615        3.20698931818175       -5.47269784560002
O            1.83523941891686        1.95583457264221        3.87544870847923
H            2.57795131496147        1.67682439209582        4.43002646570181
H            1.56097099620709        2.83291957923531        4.18411277438184
O           -3.57544096383858        6.53280376175891       -0.04065243278654
H           -4.09618097964575        6.47332404400981       -0.85157217238043
H           -3.36881896465488        5.61488020020194        0.22797398959916
O           -3.41631160278084       -1.34696417606268       -7.95126750002941
H           -4.12032894338949       -1.98265381380947       -7.73509291128025
H           -3.72638427815772       -0.82560719432245       -8.69154410924549
O           12.08303811777555       -0.23737404942883       -1.96673156723622
H           11.49820260952550       -0.60178910234833       -2.64366159132420
H           12.18612454282672       -0.95252967497392       -1.31464059833901
O            4.96203219439285       -2.26027397771846       -4.97572058632556
H            4.12594027929359       -1.92504970376291       -5.34039183673269
H            4.98882884009489       -1.90625175599913       -4.05840918849713
O           -3.02711865270248        1.71160200913775       -3.58246384039515
H           -3.00446720211947        1.74522410225629       -4.54806700595032
H           -2.16511466652958        1.37518234682224       -3.27501561102949
O           -4.79421992487717        3.32971337021720       -2.24153081238220
H           -5.65953463212143        3.25329805071323       -2.68122952076894
H           -4.17760837992683        2.75950288355214       -2.73541322814505
O            5.18711650269970        5.29112524222857        2.22889471991390
H            4.87029463574299        5.03639903137450        3.10688972589255
H            5.52895323487668        4.47278971320375        1.81586098363257
O            7.71943962112654       -1.06203284110105       -1.98622127344342
H            7.67798783704774       -0.39639123001976       -2.68734594712146
H            6.80981160021975       -1.36189463073666       -1.87373100501896
O           -7.89482692149316       -1.20206416148347       -1.62473184805020
H           -8.25662317127607       -0.75173291279726       -0.83000373673023
H           -7.55759561982615       -0.45980552480034       -2.17506874059002
O           -8.42261788341381       -0.79463003889580       -5.34300187049645
H           -9.04504554579741       -0.94970684343030       -4.59774099024888
H           -8.37102080242314       -1.66485047754254       -5.77666839277756
O           -7.21884006331766       -3.72767432735830       -3.50858318148729
H           -6.73755650844255       -2.87843278091706       -3.45345221866643
H           -7.96949069744312       -3.68347969523656       -2.88410208785581
O            2.13772740682809       -6.47526735851859       -2.42953905199534
H            1.39703130841044       -6.58688764105526       -3.05299431987153
H            2.38206379553762       -5.52114276519959       -2.45056440399033
O           -3.66804249606663       -1.82238795938197        4.37972323207558
H           -3.34406027323425       -2.64273545691529        3.94772683353399
H           -4.31884724405411       -2.10867045966864        5.04225042204079
O            7.65379365998489       -2.02124174961278       -5.02747940496675
H            6.78758438039077       -2.26185704519737       -5.38735807632404
H            7.50746269837392       -1.10314465430646       -4.71649008552538
O            7.12515417724788        0.97852606370017        7.05544677688882
H            6.46971741740810        0.28497492156079        7.20888186449691
H            7.87360363263422        0.56753155188644        6.59757072112553
O           -1.04256320853617       -2.33331205679239        5.37035770217907
H           -1.80087915453996       -2.81083225754834        5.74962703157135
H           -0.46051014350146       -3.00998021200821        5.00729193736992
 
 Bond Distances (Angstroems)
 ---------------------------
H1-C2=1.0901         C2-H1=1.0901         C2-H3=1.0872         C2-C4=1.5125         C2-O7=1.4187         H3-C2=1.0872         
C4-C2=1.5125         C4-H5=1.0853         C4-H6=1.0840         C4-N9=1.4791         H5-C4=1.0853         H6-C4=1.0840         
O7-C2=1.4187         O7-H8=0.9824         H8-O7=0.9824         N9-C4=1.4791         N9-H10=1.0334        N9-H11=1.0456        
N9-H12=1.0498        H10-N9=1.0334        H11-N9=1.0456        H12-N9=1.0498        O13-H14=0.9750       O13-H15=0.9606       
H14-O13=0.9750       H15-O13=0.9606       O16-H17=0.9720       O16-H18=0.9774       H17-O16=0.9720       H18-O16=0.9774       
O19-H20=0.9769       O19-H21=0.9882       H20-O19=0.9769       H21-O19=0.9882       O22-H23=0.9684       O22-H24=0.9781       
H23-O22=0.9684       H24-O22=0.9781       O25-H26=0.9850       O25-H27=0.9707       H26-O25=0.9850       H27-O25=0.9707       
O28-H29=0.9859       O28-H30=0.9747       H29-O28=0.9859       H30-O28=0.9747       O31-H32=0.9742       O31-H33=0.9797       
H32-O31=0.9742       H33-O31=0.9797       O34-H35=0.9572       O34-H36=0.9813       H35-O34=0.9572       H36-O34=0.9813       
O37-H38=0.9704       O37-H39=0.9791       H38-O37=0.9704       H39-O37=0.9791       O40-H41=0.9692       O40-H42=0.9665       
H41-O40=0.9692       H42-O40=0.9665       O43-H44=0.9787       O43-H45=0.9827       H44-O43=0.9787       H45-O43=0.9827       
O46-H47=0.9742       O46-H48=0.9756       H47-O46=0.9742       H48-O46=0.9756       O49-H50=0.9730       O49-H51=0.9845       
H50-O49=0.9730       H51-O49=0.9845       O52-H53=0.9867       O52-H54=0.9594       H53-O52=0.9867       H54-O52=0.9594       
O55-H56=0.9813       O55-H57=0.9733       H56-O55=0.9813       H57-O55=0.9733       O58-H59=0.9702       O58-H60=0.9875       
H59-O58=0.9702       H60-O58=0.9875       O61-H62=0.9657       O61-H63=0.9688       H62-O61=0.9657       H63-O61=0.9688       
O64-H65=0.9736       O64-H66=0.9818       H65-O64=0.9736       H66-O64=0.9818       O67-H68=0.9709       O67-H69=0.9784       
H68-O67=0.9709       H69-O67=0.9784       O70-H71=0.9664       O70-H72=0.9706       H71-O70=0.9664       H72-O70=0.9706       
O73-H74=0.9726       O73-H75=0.9736       H74-O73=0.9726       H75-O73=0.9736       O76-H77=0.9746       O76-H78=0.9734       
H77-O76=0.9746       H78-O76=0.9734       O79-H80=0.9868       O79-H81=0.9683       H80-O79=0.9868       H81-O79=0.9683       
O82-H83=0.9694       O82-H84=0.9739       H83-O82=0.9694       H84-O82=0.9739       O85-H86=0.9791       O85-H87=0.9804       
H86-O85=0.9791       H87-O85=0.9804       O88-H89=0.9679       O88-H90=0.9792       H89-O88=0.9679       H90-O88=0.9792       
O91-H92=0.9730       O91-H93=0.9832       H92-O91=0.9730       H93-O91=0.9832       O94-H95=0.9752       O94-H96=0.9731       
H95-O94=0.9752       H96-O94=0.9731       O97-H98=0.9619       O97-H99=0.9750       H98-O97=0.9619       H99-O97=0.9750       
O100-H101=0.9679     O100-H102=0.9761     H101-O100=0.9679     H102-O100=0.9761     O103-H104=0.9740     O103-H105=0.9751     
H104-O103=0.9740     H105-O103=0.9751     O106-H107=0.9710     O106-H108=0.9732     H107-O106=0.9710     H108-O106=0.9732     
O109-H110=0.9744     O109-H111=0.9750     H110-O109=0.9744     H111-O109=0.9750     O112-H113=0.9883     O112-H114=0.9649     
H113-O112=0.9883     H114-O112=0.9649     O115-H116=0.9672     O115-H117=0.9648     H116-O115=0.9672     H117-O115=0.9648     
O118-H119=0.9804     O118-H120=0.9728     H119-O118=0.9804     H120-O118=0.9728     O121-H122=0.9879     O121-H123=0.9779     
H122-O121=0.9879     H123-O121=0.9779     O124-H125=0.9786     O124-H126=0.9599     H125-O124=0.9786     H126-O124=0.9599     
O127-H128=0.9616     O127-H129=0.9748     H128-O127=0.9616     H129-O127=0.9748     O130-H131=0.9710     O130-H132=0.9714     
H131-O130=0.9710     H132-O130=0.9714     O133-H134=0.9723     O133-H135=0.9761     H134-O133=0.9723     H135-O133=0.9761     
O136-H137=0.9839     O136-H138=0.9839     H137-O136=0.9839     H138-O136=0.9839     O139-H140=0.9740     O139-H141=0.9659     
H140-O139=0.9740     H141-O139=0.9659     O142-H143=0.9737     O142-H144=0.9774     H143-O142=0.9737     H144-O142=0.9774     
O145-H146=0.9770     O145-H147=0.9689     H146-O145=0.9770     H147-O145=0.9689     O148-H149=0.9714     O148-H150=0.9776     
H149-O148=0.9714     H150-O148=0.9776     O151-H152=0.9758     O151-H153=0.9623     H152-O151=0.9758     H153-O151=0.9623     
O154-H155=0.9707     O154-H156=0.9691     H155-O154=0.9707     H156-O154=0.9691     O157-H158=0.9629     O157-H159=0.9668     
H158-O157=0.9629     H159-O157=0.9668     O160-H161=0.9739     O160-H162=0.9827     H161-O160=0.9739     H162-O160=0.9827     
O163-H164=0.9752     O163-H165=0.9778     H164-O163=0.9752     H165-O163=0.9778     O166-H167=0.9730     O166-H168=0.9675     
H167-O166=0.9730     H168-O166=0.9675     O169-H170=0.9727     O169-H171=0.9769     H170-O169=0.9727     H171-O169=0.9769     
O172-H173=0.9606     O172-H174=0.9698     H173-O172=0.9606     H174-O172=0.9698     O175-H176=0.9813     O175-H177=0.9657     
H176-O175=0.9813     H177-O175=0.9657     O178-H179=0.9814     O178-H180=0.9709     H179-O178=0.9814     H180-O178=0.9709     
O181-H182=0.9663     O181-H183=0.9753     H182-O181=0.9663     H183-O181=0.9753     O184-H185=0.9678     O184-H186=0.9820     
H185-O184=0.9678     H186-O184=0.9820     O187-H188=0.9658     O187-H189=0.9746     H188-O187=0.9658     H189-O187=0.9746     
O190-H191=0.9857     O190-H192=0.9697     H191-O190=0.9857     H192-O190=0.9697     O193-H194=0.9771     O193-H195=0.9724     
H194-O193=0.9771     H195-O193=0.9724     O196-H197=0.9755     O196-H198=0.9813     H197-O196=0.9755     H198-O196=0.9813     
O199-H200=0.9787     O199-H201=0.9583     H200-O199=0.9787     H201-O199=0.9583     O202-H203=0.9603     O202-H204=0.9681     
H203-O202=0.9603     H204-O202=0.9681     O205-H206=0.9752     O205-H207=0.9737     H206-O205=0.9752     H207-O205=0.9737     
O208-H209=0.9662     O208-H210=0.9682     H209-O208=0.9662     H210-O208=0.9682     O211-H212=0.9570     O211-H213=0.9908     
H212-O211=0.9570     H213-O211=0.9908     O214-H215=0.9691     O214-H216=0.9918     H215-O214=0.9691     H216-O214=0.9918     
O217-H218=0.9815     O217-H219=0.9746     H218-O217=0.9815     H219-O217=0.9746     O220-H221=0.9681     O220-H222=0.9776     
H221-O220=0.9681     H222-O220=0.9776     O223-H224=0.9687     O223-H225=0.9717     H224-O223=0.9687     H225-O223=0.9717     
O226-H227=0.9725     O226-H228=0.9728     H227-O226=0.9725     H228-O226=0.9728     O229-H230=0.9699     O229-H231=0.9605     
H230-O229=0.9699     H231-O229=0.9605     O232-H233=0.9571     O232-H234=0.9834     H233-O232=0.9571     H234-O232=0.9834     
O235-H236=0.9809     O235-H237=0.9721     H236-O235=0.9809     H237-O235=0.9721     O238-H239=0.9630     O238-H240=0.9727     
H239-O238=0.9630     H240-O238=0.9727     O241-H242=0.9727     O241-H243=0.9792     H242-O241=0.9727     H243-O241=0.9792     
O244-H245=0.9816     O244-H246=0.9739     H245-O244=0.9816     H246-O244=0.9739     O247-H248=0.9747     O247-H249=0.9644     
H248-O247=0.9747     H249-O247=0.9644     O250-H251=0.9766     O250-H252=0.9640     H251-O250=0.9766     H252-O250=0.9640     
O253-H254=0.9721     O253-H255=0.9731     H254-O253=0.9721     H255-O253=0.9731     O256-H257=0.9732     O256-H258=0.9806     
H257-O256=0.9732     H258-O256=0.9806     O259-H260=0.9877     O259-H261=0.9647     H260-O259=0.9877     H261-O259=0.9647     
O262-H263=0.9797     O262-H264=0.9643     H263-O262=0.9797     H264-O262=0.9643     O265-H266=0.9683     O265-H267=0.9649     
H266-O265=0.9683     H267-O265=0.9649     O268-H269=0.9747     O268-H270=0.9598     H269-O268=0.9747     H270-O268=0.9598     
O271-H272=0.9742     O271-H273=0.9674     H272-O271=0.9742     H273-O271=0.9674     O274-H275=0.9742     O274-H276=0.9757     
H275-O274=0.9742     H276-O274=0.9757     O277-H278=0.9676     O277-H279=0.9627     H278-O277=0.9676     H279-O277=0.9627     
O280-H281=0.9709     O280-H282=0.9570     H281-O280=0.9709     H282-O280=0.9570     O283-H284=0.9846     O283-H285=0.9786     
H284-O283=0.9846     H285-O283=0.9786     O286-H287=0.9710     O286-H288=0.9755     H287-O286=0.9710     H288-O286=0.9755     
O289-H290=0.9654     O289-H291=0.9859     H290-O289=0.9654     H291-O289=0.9859     O292-H293=0.9848     O292-H294=0.9693     
H293-O292=0.9848     H294-O292=0.9693     O295-H296=0.9836     O295-H297=0.9709     H296-O295=0.9836     H297-O295=0.9709     
O298-H299=0.9900     O298-H300=0.9681     H299-O298=0.9900     H300-O298=0.9681     O301-H302=0.9666     O301-H303=0.9696     
H302-O301=0.9666     H303-O301=0.9696     O304-H305=0.9713     O304-H306=0.9627     H305-O304=0.9713     H306-O304=0.9627     
O307-H308=0.9762     O307-H309=0.9715     H308-O307=0.9762     H309-O307=0.9715     O310-H311=0.9726     O310-H312=0.9886     
H311-O310=0.9726     H312-O310=0.9886     O313-H314=0.9725     O313-H315=0.9630     H314-O313=0.9725     H315-O313=0.9630     
O316-H317=0.9731     O316-H318=0.9727     H317-O316=0.9731     H318-O316=0.9727     O319-H320=0.9825     O319-H321=0.9702     
H320-O319=0.9825     H321-O319=0.9702     O322-H323=0.9926     O322-H324=0.9631     H323-O322=0.9926     H324-O322=0.9631     
O325-H326=0.9703     O325-H327=0.9682     H326-O325=0.9703     H327-O325=0.9682     O328-H329=0.9772     O328-H330=0.9773     
H329-O328=0.9772     H330-O328=0.9773     O331-H332=0.9621     O331-H333=0.9829     H332-O331=0.9621     H333-O331=0.9829     
O334-H335=0.9649     O334-H336=0.9826     H335-O334=0.9649     H336-O334=0.9826     O337-H338=0.9980     O337-H339=0.9640     
H338-O337=0.9980     H339-O337=0.9640     O340-H341=0.9566     O340-H342=0.9785     H341-O340=0.9566     H342-O340=0.9785     
O343-H344=0.9616     O343-H345=0.9687     H344-O343=0.9616     H345-O343=0.9687     O346-H347=0.9696     O346-H348=0.9675     
H347-O346=0.9696     H348-O346=0.9675     O349-H350=0.9607     O349-H351=0.9802     H350-O349=0.9607     H351-O349=0.9802     
O352-H353=0.9557     O352-H354=0.9983     H353-O352=0.9557     H354-O352=0.9983     O355-H356=0.9754     O355-H357=0.9567     
H356-O355=0.9754     H357-O355=0.9567     O358-H359=0.9594     O358-H360=0.9794     H359-O358=0.9594     H360-O358=0.9794     
O361-H362=0.9656     O361-H363=0.9735     H362-O361=0.9656     H363-O361=0.9735     O364-H365=0.9916     O364-H366=0.9572     
H365-O364=0.9916     H366-O364=0.9572     O367-H368=0.9653     O367-H369=0.9654     H368-O367=0.9653     H369-O367=0.9654     
O370-H371=0.9744     O370-H372=0.9622     H371-O370=0.9744     H372-O370=0.9622     O373-H374=0.9673     O373-H375=0.9758     
H374-O373=0.9673     H375-O373=0.9758     O376-H377=0.9714     O376-H378=0.9742     H377-O376=0.9714     H378-O376=0.9742     
O379-H380=0.9772     O379-H381=0.9762     H380-O379=0.9772     H381-O379=0.9762     O382-H383=0.9616     O382-H384=0.9796     
H383-O382=0.9616     H384-O382=0.9796     O385-H386=0.9605     O385-H387=0.9846     H386-O385=0.9605     H387-O385=0.9846     
O388-H389=0.9787     O388-H390=0.9796     H389-O388=0.9787     H390-O388=0.9796     O391-H392=0.9681     O391-H393=0.9868     
H392-O391=0.9681     H393-O391=0.9868     O394-H395=0.9732     O394-H396=0.9586     H395-O394=0.9732     H396-O394=0.9586     
O397-H398=0.9880     O397-H399=0.9625     H398-O397=0.9880     H399-O397=0.9625     O400-H401=0.9732     O400-H402=0.9643     
H401-O400=0.9732     H402-O400=0.9643     O403-H404=0.9805     O403-H405=0.9573     H404-O403=0.9805     H405-O403=0.9573     
O406-H407=0.9785     O406-H408=0.9681     H407-O406=0.9785     H408-O406=0.9681     O409-H410=0.9776     O409-H411=0.9682     
H410-O409=0.9776     H411-O409=0.9682     O412-H413=0.9796     O412-H414=0.9607     H413-O412=0.9796     H414-O412=0.9607     
O415-H416=0.9728     O415-H417=0.9678     H416-O415=0.9728     H417-O415=0.9678     O418-H419=0.9681     O418-H420=0.9832     
H419-O418=0.9681     H420-O418=0.9832     O421-H422=0.9857     O421-H423=0.9734     H422-O421=0.9857     H423-O421=0.9734     
O424-H425=0.9717     O424-H426=0.9704     H425-O424=0.9717     H426-O424=0.9704     O427-H428=0.9834     O427-H429=0.9575     
H428-O427=0.9834     H429-O427=0.9575     O430-H431=0.9874     O430-H432=0.9583     H431-O430=0.9874     H432-O430=0.9583     
O433-H434=0.9844     O433-H435=0.9699     H434-O433=0.9844     H435-O433=0.9699     O436-H437=0.9591     O436-H438=0.9937     
H437-O436=0.9591     H438-O436=0.9937     O439-H440=0.9671     O439-H441=0.9753     H440-O439=0.9671     H441-O439=0.9753     
O442-H443=0.9588     O442-H444=0.9834     H443-O442=0.9588     H444-O442=0.9834     O445-H446=0.9676     O445-H447=0.9812     
H446-O445=0.9676     H447-O445=0.9812     O448-H449=0.9644     O448-H450=0.9766     H449-O448=0.9644     H450-O448=0.9766     
O451-H452=0.9654     O451-H453=0.9760     H452-O451=0.9654     H453-O451=0.9760     O454-H455=0.9676     O454-H456=0.9792     
H455-O454=0.9676     H456-O454=0.9792     O457-H458=0.9686     O457-H459=0.9806     H458-O457=0.9686     H459-O457=0.9806     
O460-H461=0.9657     O460-H462=0.9726     H461-O460=0.9657     H462-O460=0.9726     O463-H464=0.9821     O463-H465=0.9822     
H464-O463=0.9821     H465-O463=0.9822     O466-H467=0.9588     O466-H468=0.9724     H467-O466=0.9588     H468-O466=0.9724     
O469-H470=0.9924     O469-H471=0.9734     H470-O469=0.9924     H471-O469=0.9734     O472-H473=0.9838     O472-H474=0.9638     
H473-O472=0.9838     H474-O472=0.9638     O475-H476=0.9614     O475-H477=0.9634     H476-O475=0.9614     H477-O475=0.9634     
O478-H479=0.9669     O478-H480=0.9870     H479-O478=0.9669     H480-O478=0.9870     O481-H482=0.9725     O481-H483=0.9751     
H482-O481=0.9725     H483-O481=0.9751     O484-H485=0.9839     O484-H486=0.9675     H485-O484=0.9839     H486-O484=0.9675     
O487-H488=0.9726     O487-H489=0.9690     H488-O487=0.9726     H489-O487=0.9690     O490-H491=0.9646     O490-H492=0.9699     
H491-O490=0.9646     H492-O490=0.9699     O493-H494=0.9580     O493-H495=0.9890     H494-O493=0.9580     H495-O493=0.9890     
O496-H497=0.9772     O496-H498=0.9719     H497-O496=0.9772     H498-O496=0.9719     O499-H500=0.9825     O499-H501=0.9713     
H500-O499=0.9825     H501-O499=0.9713     O502-H503=0.9811     O502-H504=0.9669     H503-O502=0.9811     H504-O502=0.9669     
O505-H506=0.9802     O505-H507=0.9737     H506-O505=0.9802     H507-O505=0.9737     O508-H509=0.9816     O508-H510=0.9696     
H509-O508=0.9816     H510-O508=0.9696     O511-H512=0.9755     O511-H513=0.9656     H512-O511=0.9755     H513-O511=0.9656     
O514-H515=0.9818     O514-H516=0.9734     H515-O514=0.9818     H516-O514=0.9734     O517-H518=0.9675     O517-H519=0.9760     
H518-O517=0.9675     H519-O517=0.9760     O520-H521=0.9667     O520-H522=0.9609     H521-O520=0.9667     H522-O520=0.9609     
O523-H524=0.9780     O523-H525=0.9712     H524-O523=0.9780     H525-O523=0.9712     O526-H527=0.9660     O526-H528=0.9789     
H527-O526=0.9660     H528-O526=0.9789     O529-H530=0.9694     O529-H531=0.9781     H530-O529=0.9694     H531-O529=0.9781     
O532-H533=0.9747     O532-H534=0.9762     H533-O532=0.9747     H534-O532=0.9762     O535-H536=0.9716     O535-H537=0.9792     
H536-O535=0.9716     H537-O535=0.9792     O538-H539=0.9757     O538-H540=0.9677     H539-O538=0.9757     H540-O538=0.9677     
O541-H542=0.9657     O541-H543=0.9769     H542-O541=0.9657     H543-O541=0.9769     O544-H545=0.9676     O544-H546=0.9709     
H545-O544=0.9676     H546-O544=0.9709     O547-H548=0.9728     O547-H549=0.9755     H548-O547=0.9728     H549-O547=0.9755     
O550-H551=0.9899     O550-H552=0.9601     H551-O550=0.9899     H552-O550=0.9601     O553-H554=1.0143     O553-H555=0.9567     
H554-O553=1.0143     H555-O553=0.9567     O556-H557=0.9796     O556-H558=0.9742     H557-O556=0.9796     H558-O556=0.9742     
O559-H560=0.9734     O559-H561=0.9841     H560-O559=0.9734     H561-O559=0.9841     O562-H563=0.9680     O562-H564=0.9694     
H563-O562=0.9680     H564-O562=0.9694     O565-H566=0.9656     O565-H567=0.9785     H566-O565=0.9656     H567-O565=0.9785     
O568-H569=0.9729     O568-H570=0.9571     H569-O568=0.9729     H570-O568=0.9571     O571-H572=0.9660     O571-H573=0.9733     
H572-O571=0.9660     H573-O571=0.9733     O574-H575=0.9718     O574-H576=0.9836     H575-O574=0.9718     H576-O574=0.9836     
O577-H578=0.9665     O577-H579=0.9751     H578-O577=0.9665     H579-O577=0.9751     O580-H581=0.9736     O580-H582=0.9743     
H581-O580=0.9736     H582-O580=0.9743     O583-H584=0.9675     O583-H585=0.9783     H584-O583=0.9675     H585-O583=0.9783     
O586-H587=0.9677     O586-H588=0.9644     H587-O586=0.9677     H588-O586=0.9644     O589-H590=0.9825     O589-H591=0.9836     
H590-O589=0.9825     H591-O589=0.9836     O592-H593=0.9833     O592-H594=0.9737     H593-O592=0.9833     H594-O592=0.9737     
O595-H596=0.9777     O595-H597=0.9774     H596-O595=0.9777     H597-O595=0.9774     O598-H599=0.9746     O598-H600=0.9851     
H599-O598=0.9746     H600-O598=0.9851     O601-H602=0.9821     O601-H603=0.9718     H602-O601=0.9821     H603-O601=0.9718     
O604-H605=0.9684     O604-H606=0.9803     H605-O604=0.9684     H606-O604=0.9803     O607-H608=0.9665     O607-H609=0.9689     
H608-O607=0.9665     H609-O607=0.9689     O610-H611=0.9731     O610-H612=0.9636     H611-O610=0.9731     H612-O610=0.9636     
 C  H  Rav=1.0867 sigma=0.0023  Rmin=1.0840  Rmax=1.0901     4
 C  C  Rav=1.5125 sigma=0.0000  Rmin=1.5125  Rmax=1.5125     1
 N  H  Rav=1.0429 sigma=0.0070  Rmin=1.0334  Rmax=1.0498     3
 N  C  Rav=1.4791 sigma=0.0000  Rmin=1.4791  Rmax=1.4791     1
 O  H  Rav=0.9732 sigma=0.0083  Rmin=0.9557  Rmax=1.0143   401
 O  C  Rav=1.4187 sigma=0.0000  Rmin=1.4187  Rmax=1.4187     1
 
 selected bond angles (degree)
 --------------------
H3-C2-H1=109.75                C4-C2-H1=110.13                C4-C2-H3=109.83                O7-C2-H1=109.77                
O7-C2-H3=106.56                O7-C2-C4=110.74                H5-C4-C2=108.01                H6-C4-C2=109.81                
H6-C4-H5=109.55                N9-C4-C2=110.44                N9-C4-H5=109.45                N9-C4-H6=109.55                
H8-O7-C2=109.51                H10-N9-C4=108.12               H11-N9-C4=109.91               H11-N9-H10=107.18              
H12-N9-C4=110.92               H12-N9-H10=109.87              H12-N9-H11=110.73              
 
 selected dihedral angles (degree)
 ---------------------------------
H5-C4-C2-H1=195.79            H5-C4-C2-H3= 74.81            H5-C4-C2-O7=317.39            H6-C4-C2-H1= 76.37            
H6-C4-C2-H3=315.39            H6-C4-C2-O7=197.97            N9-C4-C2-H1=315.45            N9-C4-C2-H3=194.47            
N9-C4-C2-O7= 77.05            H8-O7-C2-H1= 86.99            H8-O7-C2-H3=205.78            H8-O7-C2-C4=325.18            
H10-N9-C4-C2=229.04           H10-N9-C4-H5=347.83           H10-N9-C4-H6=107.96           H11-N9-C4-C2=112.36           
H11-N9-C4-H5=231.15           H11-N9-C4-H6=351.28           H12-N9-C4-C2=349.57           H12-N9-C4-H5=108.36           
H12-N9-C4-H6=228.49           
 
 CMA Distance (Angstroems)
 ---------------------------
R(CMA):  1.2284
           -------------------------------------------------
          |                Final Singlepoint                |
           -------------------------------------------------

          ...................................................
          :                      SETUP                      :
          :.................................................:
          :  # basis functions                1224          :
          :  # atomic orbitals                1224          :
          :  # shells                          816          :
          :  # electrons                      1626          :
          :  max. iterations                   250          :
          :  Hamiltonian                  GFN2-xTB          :
          :  restarted?                      false          :
          :  GBSA solvation                  false          :
          :  PC potential                    false          :
          :  electronic temp.          300.0000000     K    :
          :  accuracy                    1.0000000          :
          :  -> integral cutoff          0.2500000E+02      :
          :  -> integral neglect         0.1000000E-07      :
          :  -> SCF convergence          0.1000000E-05 Eh   :
          :  -> wf. convergence          0.1000000E-03 e    :
          :  Broyden damping             0.4000000          :
          ...................................................

 iter      E             dE          RMSdq      gap      omega  full diag
   1  -1039.8169100 -0.103982E+04  0.145E-05    8.08       0.0  T
   2  -1039.8169100 -0.750333E-11  0.859E-06    8.08     470.7  T
   3  -1039.8169100 -0.341061E-11  0.220E-06    8.08    1839.7  T

   *** convergence criteria satisfied after 3 iterations ***

         #    Occupation            Energy/Eh            Energy/eV
      -------------------------------------------------------------
         1        2.0000           -0.7358602             -20.0238
       ...           ...                  ...                  ...
       807        2.0000           -0.4590350             -12.4910
       808        2.0000           -0.4587714             -12.4838
       809        2.0000           -0.4578251             -12.4581
       810        2.0000           -0.4575600             -12.4508
       811        2.0000           -0.4564090             -12.4195
       812        2.0000           -0.4554679             -12.3939
       813        2.0000           -0.4484284             -12.2024 (HOMO)
       814                         -0.1514940              -4.1224 (LUMO)
       815                         -0.1377647              -3.7488
       816                         -0.1309276              -3.5627
       817                         -0.1235531              -3.3621
       818                         -0.1135106              -3.0888
       ...                                ...                  ...
      1224                          0.3830606              10.4236
      -------------------------------------------------------------
                  HL-Gap            0.2969344 Eh            8.0800 eV
             Fermi-level           -0.2999612 Eh           -8.1624 eV

 SCC (total)                   0 d,  0 h,  0 min, 12.241 sec
 SCC setup                      ...        0 min,  0.032 sec (  0.264%)
 Dispersion                     ...        0 min,  0.079 sec (  0.649%)
 classical contributions        ...        0 min,  0.021 sec (  0.168%)
 integral evaluation            ...        0 min,  0.678 sec (  5.540%)
 iterations                     ...        0 min,  1.849 sec ( 15.106%)
 molecular gradient             ...        0 min,  9.509 sec ( 77.687%)
 printout                       ...        0 min,  0.072 sec (  0.586%)

         :::::::::::::::::::::::::::::::::::::::::::::::::::::
         ::                     SUMMARY                     ::
         :::::::::::::::::::::::::::::::::::::::::::::::::::::
         :: total energy           -1033.452908318212 Eh    ::
         :: gradient norm              0.000101958253 Eh/a0 ::
         :: HOMO-LUMO gap              8.079996294857 eV    ::
         ::.................................................::
         :: SCC energy             -1039.816909987906 Eh    ::
         :: -> isotropic ES            5.737157083170 Eh    ::
         :: -> anisotropic ES         -1.313201536906 Eh    ::
         :: -> anisotropic XC         -0.096743191920 Eh    ::
         :: -> dispersion             -0.635406883980 Eh    ::
         :: repulsion energy           6.240767166689 Eh    ::
         :: add. restraining           0.000000000000 Eh    ::
         :: total charge               1.000000000000 e     ::
         :::::::::::::::::::::::::::::::::::::::::::::::::::::

           ------------------------------------------------- 
          |                Numerical Hessian                |
           ------------------------------------------------- 
step length          :   0.00500
SCC accuracy         :   0.30000
Hessian scale factor :   1.00000
frozen atoms in %    :   0.00000    0
RMS gradient         :   0.00010
estimated CPU  time    764.63 min
estimated wall time    766.49 min
