      -----------------------------------------------------------      
     |                   =====================                   |     
     |                           x T B                           |     
     |                   =====================                   |     
     |                         S. Grimme                         |     
     |          Mulliken Center for Theoretical Chemistry        |     
     |                    University of Bonn                     |     
      -----------------------------------------------------------      

   * xtb version 6.5.1 (579679a) compiled by 'ehlert@majestix' on 2022-07-11

   xtb is free software: you can redistribute it and/or modify it under
   the terms of the GNU Lesser General Public License as published by
   the Free Software Foundation, either version 3 of the License, or
   (at your option) any later version.
   
   xtb is distributed in the hope that it will be useful,
   but WITHOUT ANY WARRANTY; without even the implied warranty of
   MERCHANTABILITY or FITNESS FOR A PARTICULAR PURPOSE.  See the
   GNU Lesser General Public License for more details.
   
   Cite this work as:
   * C. Bannwarth, E. Caldeweyher, S. Ehlert, A. Hansen, P. Pracht,
     J. Seibert, S. Spicher, S. Grimme, WIREs Comput. Mol. Sci., 2020, 11,
     e01493. DOI: 10.1002/wcms.1493
   
   for GFN2-xTB:
   * C. Bannwarth, S. Ehlert and S. Grimme., J. Chem. Theory Comput., 2019,
     15, 1652-1671. DOI: 10.1021/acs.jctc.8b01176
   for GFN1-xTB:
   * S. Grimme, C. Bannwarth, P. Shushkov, J. Chem. Theory Comput., 2017,
     13, 1989-2009. DOI: 10.1021/acs.jctc.7b00118
   for GFN0-xTB:
   * P. Pracht, E. Caldeweyher, S. Ehlert, S. Grimme, ChemRxiv, 2019, preprint.
     DOI: 10.26434/chemrxiv.8326202.v1
   for GFN-FF:
   * S. Spicher and S. Grimme, Angew. Chem. Int. Ed., 2020, 59, 15665-15673.
     DOI: 10.1002/anie.202004239
   
   for ALPB and GBSA implicit solvation:
   * S. Ehlert, M. Stahn, S. Spicher, S. Grimme, J. Chem. Theory Comput.,
     2021, 17, 4250-4261. DOI: 10.1021/acs.jctc.1c00471
   
   for DFT-D4:
   * E. Caldeweyher, C. Bannwarth and S. Grimme, J. Chem. Phys., 2017,
     147, 034112. DOI: 10.1063/1.4993215
   * E. Caldeweyher, S. Ehlert, A. Hansen, H. Neugebauer, S. Spicher,
     C. Bannwarth and S. Grimme, J. Chem. Phys., 2019, 150, 154122.
     DOI: 10.1063/1.5090222
   * E. Caldeweyher, J.-M. Mewes, S. Ehlert and S. Grimme, Phys. Chem. Chem. Phys.
     2020, 22, 8499-8512. DOI: 10.1039/D0CP00502A
   
   for sTDA-xTB:
   * S. Grimme and C. Bannwarth, J. Chem. Phys., 2016, 145, 054103.
     DOI: 10.1063/1.4959605
   
   in the mass-spec context:
   * V. Asgeirsson, C. Bauer and S. Grimme, Chem. Sci., 2017, 8, 4879.
     DOI: 10.1039/c7sc00601b
   * J. Koopman and S. Grimme, ACS Omega 2019, 4, 12, 15120-15133.
     DOI: 10.1021/acsomega.9b02011
   
   for metadynamics refer to:
   * S. Grimme, J. Chem. Theory Comput., 2019, 155, 2847-2862
     DOI: 10.1021/acs.jctc.9b00143
   
   for SPH calculations refer to:
   * S. Spicher and S. Grimme, J. Chem. Theory Comput., 2021, 17, 1701-1714
     DOI: 10.1021/acs.jctc.0c01306
   
   with help from (in alphabetical order)
   P. Atkinson, C. Bannwarth, F. Bohle, G. Brandenburg, E. Caldeweyher
   M. Checinski, S. Dohm, S. Ehlert, S. Ehrlich, I. Gerasimov, C. Hölzer
   A. Katbashev, J. Koopman, C. Lavigne, S. Lehtola, F. März, M. Müller,
   F. Musil, H. Neugebauer, J. Pisarek, C. Plett, P. Pracht, F. Pultar,
   J. Seibert, P. Shushkov, S. Spicher, M. Stahn, M. Steiner, T. Strunk,
   J. Stückrath, T. Rose, and J. Unsleber
   
 * started run on 2022/11/03 at 00:49:15.946     

           -------------------------------------------------
          |                Calculation Setup                |
           -------------------------------------------------

          program call               : xtb cluster.xyz --gfn2 --ohess
          hostname                   : cn0272
          coordinate file            : cluster.xyz
          omp threads                :                     1

   ID    Z sym.   atoms
    1    1 H      1, 3, 5, 6, 8, 10-12, 14, 15, 17, 18, 20, 21, 23, 24, 26,
                  27, 29, 30, 32, 33, 35, 36, 38, 39, 41, 42, 44, 45, 47, 48,
                  50, 51, 53, 54, 56, 57, 59, 60, 62, 63, 65, 66, 68, 69, 71,
                  72, 74, 75, 77, 78, 80, 81, 83, 84, 86, 87, 89, 90, 92, 93,
                  95, 96, 98, 99, 101, 102, 104, 105, 107, 108, 110, 111,
                  113, 114, 116, 117, 119, 120, 122, 123, 125, 126, 128, 129,
                  131, 132, 134, 135, 137, 138, 140, 141, 143, 144, 146, 147,
                  149, 150, 152, 153, 155, 156, 158, 159, 161, 162, 164, 165,
                  167, 168, 170, 171, 173, 174, 176, 177, 179, 180, 182, 183,
                  185, 186, 188, 189, 191, 192, 194, 195, 197, 198, 200, 201,
                  203, 204, 206, 207, 209, 210, 212, 213, 215, 216, 218, 219,
                  221, 222, 224, 225, 227, 228, 230, 231, 233, 234, 236, 237,
                  239, 240, 242, 243, 245, 246, 248, 249, 251, 252, 254, 255,
                  257, 258, 260, 261, 263, 264, 266, 267, 269, 270, 272, 273,
                  275, 276, 278, 279, 281, 282, 284, 285, 287, 288, 290, 291,
                  293, 294, 296, 297, 299, 300, 302, 303, 305, 306, 308, 309,
                  311, 312, 314, 315, 317, 318, 320, 321, 323, 324, 326, 327,
                  329, 330, 332, 333, 335, 336, 338, 339, 341, 342, 344, 345,
                  347, 348, 350, 351, 353, 354, 356, 357, 359, 360, 362, 363,
                  365, 366, 368, 369, 371, 372, 374, 375, 377, 378, 380, 381,
                  383, 384, 386, 387, 389, 390, 392, 393, 395, 396, 398, 399,
                  401, 402, 404, 405, 407, 408, 410, 411, 413, 414, 416, 417,
                  419, 420, 422, 423, 425, 426, 428, 429, 431, 432, 434, 435,
                  437, 438, 440, 441, 443, 444, 446, 447, 449, 450, 452, 453,
                  455, 456, 458, 459, 461, 462, 464, 465, 467, 468, 470, 471,
                  473, 474, 476, 477, 479, 480, 482, 483, 485, 486, 488, 489,
                  491, 492, 494, 495, 497, 498, 500, 501, 503, 504, 506, 507,
                  509, 510, 512, 513, 515, 516, 518, 519, 521, 522, 524, 525,
                  527, 528, 530, 531, 533, 534, 536, 537, 539, 540, 542, 543,
                  545, 546, 548, 549, 551, 552, 554, 555, 557, 558, 560, 561,
                  563, 564, 566, 567, 569, 570, 572, 573, 575, 576, 578, 579,
                  581, 582, 584, 585, 587, 588, 590, 591, 593, 594, 596, 597,
                  599, 600, 602, 603, 605, 606, 608, 609, 611, 612
    2    6 C      2, 4
    3    8 O      7, 13, 16, 19, 22, 25, 28, 31, 34, 37, 40, 43, 46, 49, 52,
                  55, 58, 61, 64, 67, 70, 73, 76, 79, 82, 85, 88, 91, 94, 97,
                  100, 103, 106, 109, 112, 115, 118, 121, 124, 127, 130, 133,
                  136, 139, 142, 145, 148, 151, 154, 157, 160, 163, 166, 169,
                  172, 175, 178, 181, 184, 187, 190, 193, 196, 199, 202, 205,
                  208, 211, 214, 217, 220, 223, 226, 229, 232, 235, 238, 241,
                  244, 247, 250, 253, 256, 259, 262, 265, 268, 271, 274, 277,
                  280, 283, 286, 289, 292, 295, 298, 301, 304, 307, 310, 313,
                  316, 319, 322, 325, 328, 331, 334, 337, 340, 343, 346, 349,
                  352, 355, 358, 361, 364, 367, 370, 373, 376, 379, 382, 385,
                  388, 391, 394, 397, 400, 403, 406, 409, 412, 415, 418, 421,
                  424, 427, 430, 433, 436, 439, 442, 445, 448, 451, 454, 457,
                  460, 463, 466, 469, 472, 475, 478, 481, 484, 487, 490, 493,
                  496, 499, 502, 505, 508, 511, 514, 517, 520, 523, 526, 529,
                  532, 535, 538, 541, 544, 547, 550, 553, 556, 559, 562, 565,
                  568, 571, 574, 577, 580, 583, 586, 589, 592, 595, 598, 601,
                  604, 607, 610
    4    7 N      9

molecular fragmentation (1/2 indicates fragments):
111111111111222222222222222222222222222222222222222222222222222222222222
222222222222222222222222222222222222222222222222222222222222222222222222
222222222222222222222222222222222222222222222222222222222222222222222222
222222222222222222222222222222222222222222222222222222222222222222222222
222222222222222222222222222222222222222222222222222222222222222222222222
222222222222222222222222222222222222222222222222222222222222222222222222
222222222222222222222222222222222222222222222222222222222222222222222222
222222222222222222222222222222222222222222222222222222222222222222222222
222222222222222222222222222222222222
# atoms in fragment 1/2:    12   600
 fragment masses (1/2) :       62.09     3603.06
CMA distance (Bohr)    :   2.300
constraining FC (au)   :  0.0500

           -------------------------------------------------
          |                 G F N 2 - x T B                 |
           -------------------------------------------------

        Reference                      10.1021/acs.jctc.8b01176
      * Hamiltonian:
        H0-scaling (s, p, d)           1.850000    2.230000    2.230000
        zeta-weighting                 0.500000
      * Dispersion:
        s8                             2.700000
        a1                             0.520000
        a2                             5.000000
        s9                             5.000000
      * Repulsion:
        kExp                           1.500000    1.000000
        rExp                           1.000000
      * Coulomb:
        alpha                          2.000000
        third order                    shell-resolved
        anisotropic                    true
        a3                             3.000000
        a5                             4.000000
        cn-shift                       1.200000
        cn-exp                         4.000000
        max-rad                        5.000000


          ...................................................
          :                      SETUP                      :
          :.................................................:
          :  # basis functions                1224          :
          :  # atomic orbitals                1224          :
          :  # shells                          816          :
          :  # electrons                      1626          :
          :  max. iterations                   250          :
          :  Hamiltonian                  GFN2-xTB          :
          :  restarted?                      false          :
          :  GBSA solvation                  false          :
          :  PC potential                    false          :
          :  electronic temp.          300.0000000     K    :
          :  accuracy                    1.0000000          :
          :  -> integral cutoff          0.2500000E+02      :
          :  -> integral neglect         0.1000000E-07      :
          :  -> SCF convergence          0.1000000E-05 Eh   :
          :  -> wf. convergence          0.1000000E-03 e    :
          :  Broyden damping             0.4000000          :
          ...................................................

 iter      E             dE          RMSdq      gap      omega  full diag
   1  -1039.6775717 -0.103968E+04  0.407E+00    7.97       0.0  T
   2  -1039.7991948 -0.121623E+00  0.241E+00    8.08       1.0  T
   3  -1039.8241646 -0.249698E-01  0.233E-01    7.92       1.0  T
   4  -1039.8284743 -0.430968E-02  0.925E-02    7.90       1.0  T
   5  -1039.8290286 -0.554331E-03  0.305E-02    7.92       1.0  T
   6  -1039.8290624 -0.338046E-04  0.139E-02    7.93       1.0  T
   7  -1039.8290675 -0.505119E-05  0.198E-03    7.93       2.0  T
   8  -1039.8290679 -0.466221E-06  0.646E-04    7.93       6.3  T
   9  -1039.8290679 -0.195046E-07  0.203E-04    7.93      19.9  T

   *** convergence criteria satisfied after 9 iterations ***

         #    Occupation            Energy/Eh            Energy/eV
      -------------------------------------------------------------
         1        2.0000           -0.7461588             -20.3040
       ...           ...                  ...                  ...
       807        2.0000           -0.4620343             -12.5726
       808        2.0000           -0.4619538             -12.5704
       809        2.0000           -0.4609254             -12.5424
       810        2.0000           -0.4592621             -12.4972
       811        2.0000           -0.4580301             -12.4636
       812        2.0000           -0.4526538             -12.3173
       813        2.0000           -0.4464734             -12.1492 (HOMO)
       814                         -0.1549507              -4.2164 (LUMO)
       815                         -0.1398924              -3.8067
       816                         -0.1315281              -3.5791
       817                         -0.1233342              -3.3561
       818                         -0.1171731              -3.1884
       ...                                ...                  ...
      1224                          0.3705546              10.0833
      -------------------------------------------------------------
                  HL-Gap            0.2915227 Eh            7.9327 eV
             Fermi-level           -0.3007121 Eh           -8.1828 eV

 SCC (total)                   0 d,  0 h,  0 min, 17.427 sec
 SCC setup                      ...        0 min,  0.035 sec (  0.203%)
 Dispersion                     ...        0 min,  0.091 sec (  0.523%)
 classical contributions        ...        0 min,  0.021 sec (  0.119%)
 integral evaluation            ...        0 min,  0.721 sec (  4.139%)
 iterations                     ...        0 min,  6.852 sec ( 39.316%)
 molecular gradient             ...        0 min,  9.633 sec ( 55.278%)
 printout                       ...        0 min,  0.073 sec (  0.421%)

         :::::::::::::::::::::::::::::::::::::::::::::::::::::
         ::                     SUMMARY                     ::
         :::::::::::::::::::::::::::::::::::::::::::::::::::::
         :: total energy           -1033.480902668253 Eh    ::
         :: gradient norm              0.000687279760 Eh/a0 ::
         :: HOMO-LUMO gap              7.932736145930 eV    ::
         ::.................................................::
         :: SCC energy             -1039.829067937437 Eh    ::
         :: -> isotropic ES            5.732649531290 Eh    ::
         :: -> anisotropic ES         -1.313042197477 Eh    ::
         :: -> anisotropic XC         -0.097469705228 Eh    ::
         :: -> dispersion             -0.635029316874 Eh    ::
         :: repulsion energy           6.223663059402 Eh    ::
         :: add. restraining           0.000000000000 Eh    ::
         :: total charge               1.000000000000 e     ::
         :::::::::::::::::::::::::::::::::::::::::::::::::::::

      ----------------------------------------------------------- 
     |                       L-ANC optimizer                     |
      ----------------------------------------------------------- 
          low memory version by Sebastian Ehlert

          ...................................................
          :                      SETUP                      :
          :.................................................:
          :   energy convergence        0.5000000E-05 Eh    :
          :   grad. convergence         0.1000000E-02 Eh/a0 :
          :   optimization log               true           :
          :   writing optlog all                1     steps :
          :   Hessian reset                    20     steps :
          :   maximium step len.        1.0000000     a0    :
          :   LBFGS images                     20           :
          ...................................................
 * calculating model hessian...
Using Lindh-Hessian (1995)
 Shifting diagonal of input Hessian by   1.000489915692015E-002
 Lowest  eigenvalues of input Hessian
    0.010000    0.010004    0.000000    0.000000    0.000000    0.000000
    0.000000    0.000000    0.010014    0.010080    0.010136    0.010149
    0.010153    0.010190    0.010197    0.010214    0.010224    0.010235
 Highest eigenvalues
    1.441560    1.449092    1.449118    1.449348    1.463225    1.499726
 

........................................................................
.............................. CYCLE    1 ..............................
........................................................................
   1  -1039.8291100 -0.103983E+04  0.149E-03    7.93       0.0  T
   2  -1039.8291100 -0.245070E-07  0.921E-04    7.93       4.4  T
   3  -1039.8291100 -0.102923E-07  0.821E-05    7.93      49.2  T
     SCC iter.                  ...        0 min,  2.055 sec
     gradient                   ...        0 min,  9.437 sec
 * total energy  : -1033.4809027 Eh     change       -0.4126491E-07 Eh
   gradient norm :     0.0004525 Eh/a0  converged?    E=T G=T D=F
   step length   :     0.0157580 a0

   *** GEOMETRY OPTIMIZATION CONVERGED AFTER 1 CYCLES ***

------------------------------------------------------------------------
 total energy gain   :        -0.0000000 Eh       -0.0000 kcal/mol
 total RMSD          :         0.0006369 a0        0.0003 Å
 total power (kW/mol):        -0.0001083 (step)   -0.0000 (real)
------------------------------------------------------------------------

 L-ANCopt (total)              0 d,  0 h,  0 min, 18.911 sec
 setup                          ...        0 min,  0.022 sec (  0.117%)
 model hessian                  ...        0 min,  4.752 sec ( 25.128%)
 ANC generation                 ...        0 min,  1.719 sec (  9.090%)
 coordinate transformation      ...        0 min,  0.007 sec (  0.039%)
 Rational function              ...        0 min,  0.002 sec (  0.012%)
 singlepoint calculation        ...        0 min, 12.393 sec ( 65.534%)
 optimization log               ...        0 min,  0.011 sec (  0.056%)
                                ...        0 min,  0.000 sec (  0.000%)

================
 final structure:
================
612
 xtb: 6.5.1 (579679a)
H           -1.40500446831617       -0.13008962094161       -0.53292855146279
C           -0.94681026796419        0.34157996432541       -1.39874739880445
H           -1.56501875640808        0.16749531407476       -2.27382925818062
C            0.43676666655573       -0.24408653567731       -1.58756105619647
H            1.06164739946040        0.43435238718718       -2.15977177378416
H            0.36878437355629       -1.19472603788421       -2.10222116486504
O           -0.91064387403386        1.74378317787325       -1.20512085218941
H           -0.35173031416209        1.94020756046444       -0.41858848883464
N            1.06502678659215       -0.44426829861502       -0.27258082474436
H            1.02660742582014        0.42050244506420        0.28713125379503
H            2.05567894187837       -0.74107730258776       -0.44988750176193
H            0.55328509746635       -1.19969038327599        0.21998356869181
O            2.93788890823975        5.93668975873644        3.41658304649403
H            3.17998467252069        6.07939031327262        4.33242039837556
H            3.77399689367914        5.74621107884861        2.93543135991739
O            2.90048915974075        3.16364245347004       -3.63832234080329
H            2.55606130761033        2.76916008504770       -2.81101684698369
H            2.59861042013980        4.08221033064500       -3.66835624456062
O            8.35837473722812        4.62997814234257        0.28879532685029
H            8.12103346595537        5.34785835052140       -0.30612574235050
H            7.53102885895853        4.10352483967543        0.38716541124354
O           -2.74129950761290        0.22161597211239        4.00408279152922
H           -2.81215405706930        0.68234844743022        4.84985094879613
H           -3.55152172281416        0.48596386762773        3.51962341767849
O           -3.85452342945490        4.96257343401626       -0.32155522279651
H           -4.34560906460538        4.48416744325701        0.36353551819579
H           -4.40640697276203        4.96196190901268       -1.13041899266843
O           -1.34361741887939       -4.36919288065259       -4.59230694023610
H           -0.64027522303221       -4.20341488693612       -5.24134914775879
H           -2.18478384278566       -4.20189423436831       -5.06156652102891
O            3.21091009758195        1.15607499917629        0.93683145065489
H            3.04180807306428        0.29766106297354        1.35097056435425
H            3.42590506012529        1.78019747850292        1.64454551625004
O            4.66432705999657        6.92555397751556       -0.02252545343923
H            4.91088317579089        7.83394109975815        0.14965904910453
H            4.83803608606013        6.42770277585394        0.80908230412386
O            2.87528404893464       -1.45702273724301        1.69382213155732
H            2.66886629732807       -2.29849188676154        2.12571481231377
H            3.72273988661543       -1.60428929343214        1.24874245663154
O            0.99397823504238       -2.35825947426039       -3.85177390111316
H            1.96971252474480       -2.31572015116227       -3.76574910571036
H            0.81275597867222       -2.80184216742007       -4.70138258589200
O            4.32392868452849        3.96609780101159       -1.27589543953023
H            4.51173673972014        4.45255014636879       -2.09011134281458
H            4.33975617465232        3.01089285575004       -1.49760412503528
O            7.26818038055687        3.12041321295091       -2.05237510849847
H            7.15017494541454        4.06960441188313       -1.88719649831671
H            6.52519153451773        2.85094824460208       -2.63246540091748
O           -2.65129407310502       -0.51899247151964        1.34649213220727
H           -2.88141851573086        0.39403601704730        1.07098860520949
H           -3.41520084536552       -0.86628925291725        1.84328066934349
O            0.40042510330887        1.58846057726915        5.66254395769146
H            0.95905706349309        1.52977416050420        4.85654260191697
H           -0.04703243766144        0.71608978918177        5.68528936780319
O           -1.57515273530586        2.28470713426677        2.63124921140735
H           -1.85189733217267        1.43303868146855        3.01099341107579
H           -1.40924748627926        2.86876498928913        3.39090446962267
O            3.23779262529018        0.42026338300430       -3.47983834469497
H            3.67076116529229        0.88441184245099       -4.21907665284584
H            3.65932868763680        0.71279885307029       -2.64726831914575
O           -1.65355210425159       -5.15370832895377        4.77253781759282
H           -2.20987968236021       -5.35768794269151        5.52887054459277
H           -1.89101444346052       -4.24404403891244        4.51418427962371
O            0.69804307926510       -4.88226434097266        1.03665842809812
H            1.26086804271265       -4.40368868338226        0.39514832791901
H            1.27407168187687       -5.55616052500221        1.43935979454223
O            2.09113138583509       -1.52560656634447        4.49613625547572
H            1.51559313373321       -2.13777974190797        4.00517593782454
H            3.00749747142133       -1.83239217092882        4.37335821978054
O           -0.55814454026880       -0.83398295605574        5.22759110477437
H           -0.16310921379392       -1.70706254299330        5.40347243377345
H           -0.53430030327686       -0.69211405600633        4.25594290160847
O            3.92488218161674        3.06950644146292        2.84282546925666
H            4.88763112455734        2.90999142770978        2.87144570839205
H            3.78111517380500        3.46935145617330        3.72449840860339
O           -1.78593714200158        5.64474379502822       -2.62413743846146
H           -2.10780014820126        4.77837751182201       -2.33207510694137
H           -1.24694890726402        6.03420409799875       -1.90955415558710
O           -4.76417198859332        3.64108850785336        1.89835506840763
H           -4.17515365735673        4.18029008441227        2.46578019132970
H           -4.87931347699230        2.77680739999053        2.36614975668155
O           -3.16427468989197       -2.04090217468986       -0.74110951442324
H           -2.77513208291446       -1.58767877250123        0.03257862222171
H           -2.44808743990397       -2.22092136126203       -1.37285119335777
O            3.31319759311795       -1.42812647702229       -1.21918588752238
H            4.15283799018762       -1.40073668501026       -0.74519835728525
H            2.99261873625849       -2.34517742926126       -1.16000786562176
O            9.17107976067749       -0.67619411283477       -2.99298920848253
H            9.15449123230390       -1.04211341342691       -3.90184689362485
H            9.18748232685258        0.29514539949566       -3.10694449973258
O           -3.14326669719325        1.89877493540239        0.37816366050264
H           -3.80248344459340        2.39782528691218        0.87665141324122
H           -2.32975761782157        2.42591514998991        0.44385197332359
O            1.96770020951765        2.22334601131365       -1.36421070161435
H            1.50388267551514        3.06834362045412       -1.21517574409134
H            2.39038403506898        1.97207926397733       -0.53517204986351
O            1.89802711703779       -1.36029544569088        7.17911554282871
H            1.88700641119766       -1.37968032608746        6.19472603547723
H            1.21301007855911       -1.97473066613933        7.44946842610690
O           -2.17801839720705       -4.46046883235040        1.11441510808559
H           -3.09997694220698       -4.15568294112241        1.23390665696988
H           -2.08379572227139       -5.28426028124475        1.62780297698096
O           -0.15581361792656       -1.14845244486937       -7.17308994312619
H           -0.57526477853954       -0.94927186904762       -6.30349467013839
H           -0.50005090315966       -0.43854070044640       -7.74480708966994
O            2.29730095967138        6.73505074537954       -1.45136167150681
H            3.12161436580061        6.75399359755494       -0.93388866679180
H            1.69731140929611        7.39240985719213       -1.09052691955234
O           -2.54459755723903        4.06677446607622       -6.86141236274923
H           -3.06399377981651        3.29007270022081       -7.11535309416717
H           -1.61910805709305        3.78582381140854       -6.85493617625754
O            6.76183001901575       -5.00937440668005       -4.13300957812292
H            6.53466549688877       -4.12737509415786       -4.49072638744308
H            7.72716650392660       -5.01729194264679       -4.07928556900363
O           -2.45871756233123       -4.70564770723045       -1.54468988679784
H           -2.38413798747942       -4.68356636086487       -0.56412389114355
H           -1.57973152701000       -4.42404012226841       -1.86452118658811
O          -11.06347058834090       -1.75686088929615        2.84781995348330
H          -11.69717100143816       -1.33455593887705        2.24040808981421
H          -10.67447353697677       -2.49405199415694        2.34050356731814
O           -9.96933907532423       -3.64998219321396        1.22427873939142
H           -9.11067315674868       -3.18417128611341        1.05682652838339
H           -9.73210285155140       -4.55956960385231        1.41287510890519
O            0.27440981835577       -3.02863395360540        2.98039040992638
H            0.35597524012942       -3.69304453910677        2.26838425349137
H           -0.66779288102116       -2.99550715099201        3.21997303498383
O           -0.30304859316091        3.14857235018123       -3.40322566951833
H            0.16417402966190        3.85132519468740       -2.92554506161266
H           -0.60387459437275        2.56675570825208       -2.68361804669947
O           -0.39677628544343        5.52515717876248       -4.89376621914540
H           -0.89351885848491        6.03655682061214       -5.53263153913184
H           -0.94089889345650        5.50533844781933       -4.06936079497621
O           -7.12995002753603       -0.60494874377546        3.16164977593822
H           -7.80200838152115       -1.05365118688062        3.69546282411874
H           -7.39692095158888        0.32415970388611        3.06480620354529
O            7.81514568583394        2.00730193501966        5.67440178810328
H            8.68259035099266        1.74132676193501        5.32236277145862
H            7.42264898965506        1.20578404914539        6.04605069401733
O           -5.33455012360304       -5.87429139529022       -0.61104577693849
H           -4.56770131076164       -6.42525855382086       -0.33316643905118
H           -5.27918632475060       -5.79411014189144       -1.56624824102341
O            2.50945743290383        4.11752076358688        0.78787198129519
H            3.08886325609569        4.17466655706759        0.00867697717955
H            3.08276406031414        3.86053147761801        1.53364638572287
O            6.10147227312145       -0.10676865794832       -3.86131840237643
H            5.71069828755076        0.79041780513563       -3.85006694098177
H            6.45548245426895       -0.23782376783722       -2.96536918431194
O            0.96506107641736       -5.51629451601491        4.03394965808076
H            1.36992401123416       -6.36586816867088        4.20850607906740
H            0.01526932844772       -5.60805812569951        4.18803334196393
O           -4.17304039955736       -4.59311151981342        6.01522796222779
H           -4.21019865489910       -4.52683053810284        5.03843692162692
H           -5.06607401569949       -4.39511238889707        6.30615071223288
O            5.01659590821429       -3.51697632005367       -2.06255973199224
H            5.01331039717484       -3.69425773612407       -1.11482535839703
H            5.90999131468909       -3.18879949193877       -2.27932597359926
O            2.73584075406940        4.07431174854319       -6.40163680331541
H            2.62269696952809        4.71248250093553       -5.68845292562206
H            1.83046736661093        3.81094436471205       -6.65194643230121
O            6.02977123514909        3.43768263404192        0.69870908730319
H            5.46068641591195        3.62699684733186       -0.07471317933520
H            5.92268819620764        2.49308710256572        0.92641844413899
O            2.32167277015731       -0.73056307452064       -6.34168457906620
H            1.44032226465215       -0.83695450196900       -6.76975431447015
H            2.19310203747568       -0.95948541040922       -5.41547608421510
O           -1.77638846341215       -2.19047595651986       -3.04472301882567
H           -2.63178863748249       -1.89090599864233       -3.41605263731150
H           -1.56159858790984       -3.01707532974724       -3.51351913775735
O            0.65993553487240       -3.58728621012337       -6.23800393482260
H            0.39545356382651       -2.85786955357937       -6.81902271865451
H            1.62945663040865       -3.71583956021441       -6.33771614935658
O            1.54787337373005        4.36344051978392        6.21981380463690
H            1.31650937800326        3.65738394276509        6.82561512864881
H            1.10176424838337        4.17068548416926        5.37329098180753
O           -1.27610609791428        1.14597442205133       -8.03190707187550
H           -0.78177757013451        1.88244103253905       -7.65711661456744
H           -2.19804869377482        1.24279491372200       -7.73912187622998
O            4.64832419522274        1.30900245725215       -1.34127093575276
H            4.22311279088485        1.12463934119141       -0.48523522548534
H            5.50254486000322        0.83882994682601       -1.33967594518266
O           -3.69486569478700        1.51056318952835        6.31895508670899
H           -4.62029145000232        1.33097659940366        6.07918711747816
H           -3.36563246673494        0.70662302109825        6.77327971601378
O            4.02988476219708        4.05731274401006        5.32972939716721
H            3.16609328010189        4.24318693192697        5.75895059586245
H            4.35695102112868        3.23252805679383        5.73159972521082
O            0.97454073435895        1.28441877715291       -4.65197470325268
H            1.78539806850563        1.00170182866401       -4.19077225408859
H            0.59636787107053        2.01925038660382       -4.10991205462403
O           -3.64848730317241       -3.66640566044883       -5.81972149025771
H           -4.16696220759158       -4.44390063283975       -5.48239957536388
H           -3.68897188649029       -3.71517513212371       -6.77402960607023
O           -1.02651122898074       -0.34034602187104       -4.80297522157809
H           -0.22219533979226        0.22325164764211       -4.69970073071616
H           -0.98779370981906       -1.04481762816280       -4.12852196824446
O           -0.65624344798961       -6.71039052145262       -0.46198911596303
H           -0.54731673211471       -6.59201063451966       -1.41863287162722
H           -0.28377827731042       -5.92681349722210       -0.00627804569921
O            9.18014637835742       -4.92058345573564        2.02997335920420
H            8.39560098148256       -5.41121249790612        1.76706308656255
H            9.11999512804747       -4.77770717095481        2.99342580290930
O            2.52443760499727       -3.95892553655541       -0.68276611208871
H            2.47172923251262       -4.68499191291004       -1.31469315766024
H            3.30446053756096       -4.13723945273914       -0.11431855605914
O           -4.88037964366454        1.23899118161964        2.88553215765903
H           -5.58908149948498        1.21494677556805        3.55067758822392
H           -5.24104836757144        0.85429783012075        2.05552091802913
O            8.96664150269236        3.67783145712737        2.74324008139331
H            8.84991238091250        4.18279888634352        1.91987453953341
H            9.90874628464506        3.52474026818132        2.85146343180998
O            9.17050905302973        1.96314010015276       -3.61298471922660
H            8.78112999365653        1.77882747586673       -4.48423500526399
H            8.49924076839029        2.45903498408817       -3.10513252874631
O           10.96248910948554        3.82928195899074       -0.01083838691990
H           11.08783145177021        3.33519147018062        0.81280522144361
H           10.04123034776916        4.14071289711910       -0.00387586026364
O           -3.96737913613834        0.25903456390286       -1.84582154374472
H           -3.68706968263114        0.81961150858958       -1.11267212835777
H           -3.85550962822746       -0.65559047053903       -1.53615234783537
O            5.53440326239265        3.88849615235946       -6.18919052712585
H            5.94912318570828        3.34821267129192       -6.86694342053015
H            4.60089961512598        3.96507309405497       -6.44311927472140
O           -0.23862831443382       -0.44989211261876        2.52303743369620
H            0.09496971499091       -1.35841193288285        2.43679165733474
H           -1.11955158275887       -0.45350325020978        2.10360438947672
O           -8.42156451813406        0.20537816761046        0.70093354258577
H           -8.83083784886711        0.46885781298033        1.54939806165174
H           -9.10939946977330        0.29475805993887        0.02024919210778
O           -8.50055155371196        1.13071561366531       -4.61733752210898
H           -7.72596677757652        1.03427896288632       -4.03744460043759
H           -8.85884532842110        0.23249392809033       -4.76444997856719
O            6.37454203727412       -6.35969934181862        1.25320207925452
H            6.37800810721149       -6.21003868872984        2.21806331667644
H            5.81249793213514       -7.11599748378047        1.07839011006267
O            7.52156033812864       -3.95680939518105       -0.01440999815425
H            7.05622430533930       -4.75408528478925       -0.31893584927891
H            7.48391255755378       -3.33323494049354       -0.77531445137242
O           -6.23765856529123        1.26724476911523        5.29893841236631
H           -7.17442806059826        0.99583779567286        5.39604693876938
H           -6.28503758776342        2.24468742623245        5.24315478635510
O            1.21430459208206        3.80533807315779        3.54367797574266
H            1.68311761861503        2.98369260202605        3.36579826780473
H            1.84519754263478        4.53691047522817        3.42128666402601
O           -6.80515961176870        5.08335604808314        2.81947908951436
H           -6.21203642288236        4.46981286450553        2.32459282588712
H           -6.44933211013100        5.96510103801106        2.65936250964550
O           -1.38957063971919        4.07093629975855        0.23309798943761
H           -1.23250653785968        4.42351847513211        1.13193949069476
H           -2.23789901385485        4.45088368493375       -0.05457975038933
O           -0.86783027426297        5.27263824821251        2.55775680863782
H           -0.40397616997699        4.67542121167402        3.16850044555493
H           -0.16828997647738        5.83980763384874        2.17761603619433
O            2.99410133222215       -3.91363573892759        2.93990674257421
H            3.30720514564039       -3.88104660782331        3.86224886722668
H            2.20532635405046       -4.47187091114624        2.99402417884422
O            6.59465006067924       -3.05651213333746        2.37502273883111
H            7.17759592064804       -2.37845148120027        2.77159984626569
H            7.05502019073632       -3.42209036163935        1.59107449239264
O           -4.08447269679654       -1.46915019476333       -4.16813965621959
H           -4.07565638718507       -1.92481160920594       -5.01876523367192
H           -3.98441784923198       -0.51166586063596       -4.31505426634114
O           -7.47792043072706        2.11473854307462        2.85778541766452
H           -7.50862174861465        2.57243072164131        2.00259624954654
H           -8.12177061032109        2.54581616921744        3.43580207768485
O            5.82839340140347        1.07478187012886       -7.45700879993240
H            5.06313282746322        1.27599279198862       -6.87390430588729
H            5.68924279167723        0.15689820720505       -7.71462004980717
O           -3.69354265017713        4.54904321649379       -4.51421110635360
H           -3.21137509434239        4.51440460283252       -5.36730075262279
H           -3.22018089358304        3.96578341721825       -3.90085144497643
O            6.67717969354709       -3.19519817358767        5.75456613260115
H            6.21069721454206       -3.52294904621755        6.52498239075388
H            5.98374720436159       -2.79833891395760        5.18486400402582
O            4.45167817587820       -2.20566584771171        7.15942798324682
H            4.95419760059707       -1.48086314047484        6.76344888666045
H            3.57134789877655       -1.84460689761740        7.36891376937711
O           -0.60319469347870       -6.60756310614268       -3.25097476349812
H           -1.41623112504190       -7.12358310015756       -3.30857219499151
H           -0.82341893274834       -5.77326887426639       -3.71506536230570
O            5.41882712086820        2.47642542965901       -3.86267472262883
H            5.65609418351667        2.85366495868752       -4.72522002519882
H            4.47304264052134        2.73995709609194       -3.74126591182036
O            6.38998607173234       -5.91236406687579       -1.61279505987950
H            6.46600427737581       -5.52266669168204       -2.51401868269031
H            6.97630592168005       -6.66747567845113       -1.59057020895535
O            4.54206166310922        0.52210530274793        3.82288277626052
H            4.70006487692933        0.96272326538736        4.68198261133875
H            3.62154457841780        0.74573475840504        3.59871151511933
O           -0.52742709881400       -2.50966124354620        0.21462511687703
H           -0.23638997974714       -3.00423220456115       -0.56653293695840
H           -1.07516196961904       -3.13636937638107        0.71103516007635
O            5.91713634410727        0.87597850048602        1.56615804221671
H            5.46243864520938        0.86971876494680        2.43417179451873
H            6.87528171642313        0.92447568903878        1.78236510332055
O           11.71498842019477        0.25314944132263        0.50814891977930
H           11.17292836047361       -0.50160328066322        0.22379034066665
H           11.80204457006985        0.78312327764238       -0.29732074257076
O           -6.80325633733510       -3.34616062594429        5.42915586733680
H           -7.66651806652692       -2.91106355446406        5.43228123350186
H           -6.14138289675658       -2.62452097657966        5.42840854233903
O           -1.94222627375190       -3.50399114248183        7.23563609016090
H           -2.18906336775468       -2.56692639506610        7.31997809957669
H           -2.75423596582858       -3.93500223557938        6.92009686347076
O          -10.77589629080774        1.59072212200872       -3.33223250863147
H           -9.89260265705416        1.55684946518267       -3.78439637975356
H          -11.39253850781199        1.21590875506484       -3.96114203913303
O           -4.66284746281557       -3.50045297345298       -2.46221093959364
H           -3.81659680798215       -3.88870492325887       -2.15336869777442
H           -4.44739343171209       -2.81019266657320       -3.11059239354483
O           -3.61492780672694        4.13750329718677        6.15855676279387
H           -3.64266714704927        3.15579516813603        6.26370738128952
H           -3.61989990848541        4.51014157995128        7.04015967649625
O           -9.45631333092183        4.82006808157444        2.30193526198495
H           -8.48265520456872        4.88223990431662        2.39194675311905
H           -9.71009227537326        5.45896951468420        1.63532547108222
O           -5.97532085798543       -1.77925873549256       -0.87547382663040
H           -6.60035679172783       -1.32627076130528       -1.47988466876271
H           -5.45761018363521       -2.40213895724643       -1.41525107587716
O           -5.40343016121579        2.60605947626421       -1.12626206183229
H           -5.80305180934355        2.24919047099230       -1.95155114014117
H           -5.35056536695839        1.81644644072137       -0.54779225043493
O           -2.78332056450057       -0.94672474476117        6.75830494264540
H           -3.53749699042305       -1.24847111361022        6.21520725571000
H           -2.01424110408762       -0.89374885308557        6.15222204891197
O            6.43771417903909       -5.37173237243579        3.72823001921738
H            7.15044790823391       -5.38379027646355        4.37045142479849
H            6.43558716536748       -4.46561344495808        3.34289679040313
O            6.85939843215321       -0.21860098658617       -1.31251945863837
H            7.63232975989720        0.26379143718063       -0.95711705845022
H            6.52705522072821       -0.83621606307926       -0.64281935660384
O           -6.77273314291141       -4.06542939949739        2.85527296393250
H           -7.05609047355001       -3.28103311903173        2.34502796866146
H           -6.90815568081748       -3.86360759627754        3.80697693450242
O            1.25618515333616        6.38727573632689        1.36309172613342
H            1.78503484933918        6.63552153645824        2.13193875790117
H            1.67187793260881        5.54330342474760        1.06152476662300
O           -4.87056820823772       -5.79931959764544       -4.90430066949728
H           -4.35798020898021       -6.24918847345664       -4.21328791541459
H           -5.70730774313017       -5.51581422773294       -4.50554419390755
O          -10.50248466431991        0.13666431573870       -1.06456078331306
H          -10.67880423980245        0.71507630569481       -1.83412839356561
H          -10.39298931293663       -0.75756188834947       -1.42562746362133
O           -8.90476986894719        0.84795823560281        5.43666471636741
H           -9.20132709269326        0.83510490747954        4.49717611406066
H           -9.16967791701604        1.71964685179183        5.74477210028709
O           -9.01320674088896       -1.81267289107699        4.81065121425932
H           -9.12293161041919       -1.01161237807810        5.34146498003708
H           -9.82446921718277       -1.92044581219915        4.29718145362050
O           -4.66855203035317       -3.63952818222359        0.74663908533373
H           -4.24858002163230       -3.05284482093751        0.08491377159338
H           -5.04751543670034       -4.38639436827464        0.25413055106928
O           -6.85586377771097       -4.50050293661431       -3.48723177184267
H           -7.54757656861966       -4.57175460307043       -2.80893037365760
H           -6.05821153282408       -4.16804079478260       -3.02329827505248
O           11.00535446959502       -2.94078102372752       -4.62726194490395
H           10.32409663310463       -2.48306646118391       -5.15203083864197
H           11.53075800753409       -2.25795771666538       -4.20742503464521
O            0.09040412541314       -4.00224990153212       -1.99960594466913
H            0.37868943497972       -3.35707659584244       -2.68546529094989
H            0.66303824390944       -4.77041874831664       -2.09503811834522
O           -4.79101927681866       -1.66000677625960        2.53155911067686
H           -4.86926828024723       -2.44554820314045        1.96215484567322
H           -5.68347595024624       -1.26292378638395        2.57324018671307
O           11.35316384679710        2.16681314945800        2.27251145947236
H           11.40043567995373        1.38888411265225        1.65586989746516
H           12.25567963458463        2.33061036332759        2.54782529086442
O           -3.21105479123910       -7.31235261467906        0.09236213766863
H           -3.16824113899962       -7.40300027111102        1.04959565293568
H           -2.29320098576109       -7.06602562861325       -0.16199634572393
O           -6.09374247251577        0.14785593430924       -6.22440097584289
H           -6.86683291513028        0.68923837777901       -6.03037113414272
H           -6.26353600127977       -0.69824617912572       -5.78492615654398
O            0.69250885334316        4.53264332089149       -1.37694447161227
H            1.17568481317092        5.36077674022539       -1.25017220733518
H           -0.04831325747263        4.47863924340613       -0.73940773999742
O            5.38926588469832       -1.45182595047522        0.56759117232628
H            5.55813253339556       -0.56944789796257        0.98935130720893
H            5.75969943711245       -2.13685411658892        1.15008411671113
O            0.51945761170024        2.00358655386149        1.08542139428194
H           -0.25457174124114        2.13503665815844        1.68599421340009
H            1.04375932370141        2.81458846664775        1.09346958623636
O            3.71056585581785        1.51902439455307       -5.90289540426362
H            3.08153527160919        0.83631875418539       -6.20103363286650
H            3.26301342765851        2.38005561270223       -5.95630924897981
O           -5.39698868788326        5.30317588092174       -2.49012516970400
H           -6.18806635320255        4.75903156669559       -2.71003880937764
H           -4.79040129428205        5.15490916000150       -3.23326600691019
O           -8.30247549117195        1.92915854540604       -1.56523485917369
H           -7.92549203422342        2.30115445488970       -0.74735692391412
H           -9.23662594211360        2.20250845346917       -1.51597767099131
O            8.75329015236294        1.42591091682323       -0.48693011349837
H            8.24603395064749        2.15272529629703       -0.89072404149681
H            9.63523988912036        1.43561790077518       -0.91673824433800
O           -5.02906442819085        6.99903656355041        1.90889723460443
H           -4.42277491654396        7.47593082075724        1.31473186630662
H           -4.43936443995493        6.50450478846329        2.50016759820241
O            9.14058731796186       -2.19898482484654        1.68383764239815
H            9.46125500622519       -1.88647556820882        0.81934789996108
H            9.20132382666846       -3.17295615346301        1.66963854649418
O            2.52944925268475       -6.68803370966997        1.87720865413548
H            3.11573117866341       -6.78956497132290        1.11117217831267
H            3.07918659816456       -6.61729835876796        2.68255869295279
O           10.39176130691164       -1.73761595012900        3.90287540383358
H           11.33251621516442       -1.87153238977667        3.79199714309254
H            9.98139423567513       -1.83380005053364        2.99428261465416
O           -3.39075006208908       -6.87039087566891       -2.78267825740444
H           -3.52670863006248       -7.51913207359956       -2.08814112444662
H           -3.03356267959044       -6.07016677224733       -2.33185660767389
O            7.54031539112328       -2.70327968249167       -2.31546495736797
H            8.14750787912149       -3.33845645653588       -2.75151823474140
H            7.92692600061305       -1.81860122672857       -2.44824613181343
O           -4.99351391071500       -1.33741949396004        5.19248372002728
H           -4.79661613480696       -1.50995131085730        4.24802029030156
H           -5.50583121958560       -0.51818749872964        5.20317267253419
O           10.09343967188054       -4.42804636373027       -0.62384020509190
H            9.16632223099214       -4.31487140685111       -0.30640338906990
H           10.54247454261472       -4.89545992812830        0.08175999466113
O            9.30841368295125       -4.48340195435836       -3.24496194469745
H            9.73829139448494       -4.66478358498919       -2.39524248015110
H            9.97568466323603       -4.02101151360162       -3.79252070055724
O            4.56383542872354        1.59629185076871        6.25433218933731
H            5.27336516314317        1.16340640075463        6.73289425058365
H            3.72558154127406        1.47729440628465        6.77555650887979
O            8.95572853340470       -4.06803761029065        4.59806873072318
H            8.17069711048150       -3.72361031898789        5.06272963710455
H            9.57273362615045       -3.32490782275044        4.53830046998075
O           -2.20346012475385       -6.68872559714950        2.62955196717395
H           -1.39543746766176       -7.21167373340291        2.43894462545309
H           -2.03325801860573       -6.23887446861157        3.47712250198005
O           -9.80631682139234        0.63148734530858        2.93066576348109
H          -10.31896926950484       -0.19937926049824        2.92983452268876
H          -10.35596738532837        1.33624129206486        2.52539444316958
O           -5.76659097570924        0.49736274202850        0.51066614335587
H           -6.73708878991238        0.52171129633288        0.61265820783972
H           -5.59293638618361       -0.34129407478339        0.04259644579869
O          -10.03819132185471       -2.32836393194924       -2.15261710352074
H          -10.88303939925645       -2.55918260477756       -1.70303508807336
H           -9.44867200434817       -3.07216111159986       -1.92348747579425
O            4.96569951696159        5.37272796869340       -3.74245860046665
H            5.30286650772013        4.97642161990709       -4.55535518490769
H            4.09492644972952        5.72894654293617       -3.95341489889894
O            3.31075984333772       -3.79611033374188       -6.03123681613046
H            3.49719195222691       -3.05526658500123       -5.42224651780519
H            3.49688014274740       -4.57492718072758       -5.48953608501708
O           -9.58647660976477       -1.35366459111489       -4.79440173732093
H           -8.71718589066951       -1.75940487279956       -4.96680042040808
H           -9.91083326153491       -1.76054709075829       -3.97974541655196
O           -9.05059988976675        3.50408543397709        4.76283456270576
H           -9.42321068816729        4.12610137148078        4.12758729216796
H           -8.25304101413105        3.90501791287481        5.12673546811473
O           -4.21347860198272       -4.55204593137020        3.30963907167589
H           -5.14684086211819       -4.38881401385287        3.04259703414366
H           -3.98171121921540       -5.43358226236639        3.01166189091789
O           10.11954390822201        0.98742593638521        4.55202463099077
H           10.23440344739469        0.03794725358104        4.40112577190261
H           10.48384972798252        1.42587153837639        3.76971647803903
O           -3.72205338305212        7.63072197890926       -2.58868917830923
H           -4.54991960805929        7.15679333496706       -2.71414146374117
H           -3.02013880219122        6.98265721424036       -2.77810788541556
O          -11.00509470614340        2.58217252633162        1.58939070020367
H          -10.53167317344006        3.35205768756538        1.94131779280278
H          -10.92404480082655        2.67312736672999        0.62521113561566
O           -7.78882623349588       -0.64104820740696       -2.37018794453261
H           -7.92869990823810        0.28263304803042       -2.08273378485873
H           -8.62217658672091       -1.11666845353592       -2.27087120784785
O           -3.39152113566787        5.30743991128593        3.45672815165405
H           -2.46027068202814        5.36394583742558        3.16129637874379
H           -3.36836482139918        5.02893898902447        4.37776897021411
O            3.97582670855468       -6.79767389946945       -0.47165845860771
H            3.26153652529987       -6.76339097134700       -1.12188652637831
H            4.76855306754766       -6.44435906224267       -0.90666552428795
O            2.16403315734921        5.77349783550049       -4.03172758119541
H            2.15127869770581        6.18793807765174       -3.15238649304146
H            1.23871653173773        5.77685975815811       -4.34524642848952
O            0.04895767938779       -7.96180154788118        1.89237203134351
H           -0.15054998105892       -7.82247869988623        0.95496335529165
H            0.94858275166073       -7.61944237342453        2.00944964773569
O          -12.25142271467231       -0.20725290234471        0.94114240541454
H          -12.49374872075212        0.65232738134131        1.29242050349322
H          -11.61354444514577       -0.01711687484750        0.21929905856944
O            3.21077989754969       -4.09461967368059        5.63785335664305
H            2.28769688527071       -3.92183733982412        5.86743798912271
H            3.74410836306332       -3.47289890636627        6.16908481331735
O            3.91625741571005       -6.39351346884213        4.19416246692512
H            4.83782480305153       -6.11992110152069        4.07300544659268
H            3.55176120925452       -5.74483525767982        4.81510548906004
O            3.62069047278925       -2.10642603889270       -3.94482593793264
H            3.58967989345885       -1.14584939105162       -3.71813120347701
H            4.08688330108421       -2.52720747226349       -3.20795221795293
O            8.83395283278004       -1.59321896559608       -5.50414484548191
H            7.96979709895074       -2.05291850229507       -5.44584086748156
H            8.61956119939829       -0.68941546250281       -5.81339862578216
O           -9.12323724018162        5.37597893847466       -1.55981155940858
H           -8.45528172131934        5.79807498099802       -1.00648534931281
H           -8.63606850775041        4.99206553231831       -2.30720105624806
O           -7.51156995208691        3.87842732973015       -3.23635216262670
H           -7.74002361392900        3.06726409245644       -2.73075337867474
H           -7.23395196953644        3.57850772676017       -4.11141997912160
O            6.48073334237715        2.76487841862035        3.50742792871264
H            6.83150772623485        2.46228590606606        4.36917564377447
H            7.19589139450102        3.28190415547616        3.12532924423210
O            7.62162324189779       -0.94723846114659        3.79803401010754
H            7.90830577313295       -0.22218747228788        3.21114571542755
H            8.43691599742790       -1.28404093012893        4.17819439977114
O           -7.69647522384033       -5.56001192005507        0.76612675850059
H           -6.88313707200264       -5.86903526681766        0.33810321546225
H           -7.39726495453465       -5.08546118924275        1.56337342548719
O           -1.14740068438543        3.64252071035363        4.91206766632351
H           -1.90672912362076        3.82026728660961        5.47561361691053
H           -0.64524557328333        2.90095755366871        5.30225087786871
O           -5.76054781580185        3.05534651079567       -5.27414251392767
H           -5.49462467977249        2.67585471235145       -6.11581249655232
H           -5.04021737609346        3.67007152365818       -5.01267608355316
O           -7.32009592526082        3.45429874860920        0.46079884879588
H           -7.39471036943271        4.41368779046581        0.34835700536157
H           -6.49343265881566        3.22486155241024       -0.01534738794452
O          -11.98864350105804       -2.80897714908002       -0.44223465510435
H          -12.37762665978035       -2.03597992492100       -0.01937369939084
H          -11.36548996321983       -3.19161590073409        0.20144101716929
O            4.64275022442051       -4.23528879897335        0.83855832793627
H            5.21828800149558       -5.01446894281025        0.90752771872262
H            4.13058796262276       -4.18218506435474        1.67014718924301
O            6.66841554318731        5.81413852916897       -1.62814379856902
H            6.26648251667910        5.85881805959897       -2.50704664191984
H            5.97006267170908        6.13087076773706       -1.02993367275211
O            4.06599636599823       -5.35735610275772       -3.85454236977941
H            4.89042908201926       -5.71948792598849       -4.19350399920934
H            4.35383861050116       -4.66704283721964       -3.22086153988461
O          -10.62106855554117        3.20865239116900       -1.06978417960409
H          -11.08157967399022        3.03452685736410       -1.89618110574917
H          -10.16656590451663        4.07212420179201       -1.17489432240120
O            7.80522397131807        0.85967566989295       -5.68536161418617
H            7.20107328827515        0.48052249311777       -5.00758649913646
H            7.21841287855822        1.03309033919369       -6.44946361352513
O            2.29616198737826        1.29555326417714        7.51466939762780
H            1.58198384798679        1.49155650719082        6.87173408867531
H            2.19963443233168        0.34343269890413        7.67300822531637
O            8.48828893289078        1.01518698417958        2.11277343084199
H            8.75169967402596        1.08263202160797        1.17380645187913
H            8.63963806298335        1.89826631710986        2.49328337029295
O            4.76643509211513       -2.06627429259059        4.17097414272212
H            4.80133504123513       -1.08955460431931        4.04634195179249
H            5.12199225569150       -2.45564821688410        3.36453537811582
O           -6.03789536740415        1.24761553496187       -3.29848074972302
H           -5.28220821680358        0.71225972861639       -2.99884798253212
H           -5.75835709786824        1.76539599506697       -4.07524318239998
O            5.26093099253201        5.54174995160847        2.15225694192063
H            5.54140554301246        4.70046695546050        1.73107912124569
H            5.77552861504196        5.61375208980704        2.98577158223765
O           -3.14299176760468        7.52298018984388        0.02037482379510
H           -3.38463388085932        7.85880003276841       -0.86645203604507
H           -3.33265365883762        6.56263521022826       -0.04427983020699
O           -6.27187355735807        3.98020949510145        5.21688677769030
H           -5.37536971838780        4.21109684499485        5.49472153257716
H           -6.41606575439601        4.39857858033914        4.34271409090267
O           -6.78302419875569        6.08258197867606       -0.10850241518352
H           -6.20788628800034        6.48507790565353        0.56308684074143
H           -6.25615082954410        6.01282397422862       -0.91570994538020
O            0.13437608872998        3.22790061202639       -6.38398934079651
H           -0.04856032732571        3.89599479177171       -5.69537580418606
H            0.41464434529720        2.43382504334363       -5.89271377519302
O            1.84732919593424        0.93023299445622        3.50455433802069
H            1.88865050853163        0.01602868878120        3.86939360016718
H            1.18999550345525        0.85599543559348        2.79126968762702
O           -0.55492164149742        7.03964554281301       -0.62500433380288
H           -1.41228647316261        7.37563241763352       -0.30021135506152
H           -0.01589581473635        6.86367879052479        0.15703503318728
O           -3.81986477011868        1.58854547749426       -6.94036870021436
H           -4.57008467750703        0.98878552431954       -7.05320830278980
H           -3.57213161687581        1.47060103238907       -5.99424998145819
O           11.11993187857401        1.79118495955246       -1.69591897443021
H           11.19204605172766        2.66087003682521       -1.24395053277727
H           10.73310294493022        1.95526233701064       -2.56673202467027
O            4.75203678759972       -1.64884995045734       -7.23626106543606
H            3.92026468621952       -1.26624205368296       -6.89387509816506
H            4.49248977144744       -2.49124110474739       -7.61595316751138
O           -3.19673166697265        1.13665727360277       -4.41417670230320
H           -2.33820063866596        0.67544994196903       -4.52906852582076
H           -3.11685066100299        1.73961265432407       -3.65359785015328
O           -3.02704220014257        3.02384887015682       -2.35436978069055
H           -3.88117947753966        2.94162712098052       -1.87990774143780
H           -2.37171923733798        2.59241459632649       -1.78332286944250
O            6.25900054521022        5.46743098849628        4.61025287388243
H            7.02137814105968        4.91435916242530        4.79374803249095
H            5.48857058259000        4.98606220255694        4.96741596225232
O           10.20307799143413       -1.67307158418038       -0.71076866636825
H            9.87380973090176       -1.27425829523180       -1.54008642152576
H           10.35811170978452       -2.61575043483776       -0.88179498973796
O           -7.70337355789889       -2.35149427389941        1.01060632661193
H           -7.01764728170013       -2.35444685062647        0.30850014918325
H           -7.97361977812750       -1.41098779987482        1.06875149484994
O           -6.95354283299549       -2.00515113519576       -4.64981244285209
H           -7.00023039357078       -1.47143017924656       -3.83934204673679
H           -6.90907993525500       -2.93660239097093       -4.37018462258031
O           -8.70517944215103       -4.58642789232784       -1.46784657954942
H           -9.38162048126879       -5.24129640155944       -1.64280134155858
H           -8.31716659859271       -4.83153752915041       -0.58929928305743
O            1.98315925576925       -6.12560469065535       -2.38351742753455
H            1.23597163717208       -6.57645048930576       -2.80111078358726
H            2.65028891898315       -5.96003117486417       -3.07687438527409
O           -2.29243731398986       -2.63023866152287        3.79098441140892
H           -2.46148451827433       -1.67678793211537        3.87195965041372
H           -3.08448627898045       -3.03387973270145        3.40965755113434
O            6.30683503733685       -2.49172517048047       -5.14645540651151
H            5.78068242395713       -2.29164266011813       -5.94416997522381
H            6.10274408887646       -1.75130810038514       -4.54736290438493
O            6.54830953507009       -0.42213632691762        6.23361112676420
H            6.75027689103856       -0.58748530430368        5.28716859345401
H            7.03106911193836       -1.09905430957781        6.71359008009627
O            0.39376815830563       -3.33753383360109        5.91012453490399
H            0.38375852345124       -3.90486197948949        5.12732873121754
H           -0.42127620426136       -3.54001910200838        6.41686950416451
 
 Bond Distances (Angstroems)
 ---------------------------
H1-C2=1.0872         C2-H1=1.0872         C2-H3=1.0855         C2-C4=1.5142         C2-O7=1.4160         H3-C2=1.0855         
C4-C2=1.5142         C4-H5=1.0854         C4-H6=1.0831         C4-N9=1.4710         H5-C4=1.0854         H6-C4=1.0831         
O7-C2=1.4160         O7-H8=0.9847         H8-O7=0.9847         N9-C4=1.4710         N9-H10=1.0308        N9-H11=1.0492        
N9-H12=1.0369        H10-N9=1.0308        H11-N9=1.0492        H12-N9=1.0369        O13-H14=0.9580       O13-H15=0.9833       
H14-O13=0.9580       H15-O13=0.9833       O16-H17=0.9791       O16-H18=0.9674       H17-O16=0.9791       H18-O16=0.9674       
O19-H20=0.9621       O19-H21=0.9856       H20-O19=0.9621       H21-O19=0.9856       O22-H23=0.9657       O22-H24=0.9803       
H23-O22=0.9657       H24-O22=0.9803       O25-H26=0.9692       O25-H27=0.9792       H26-O25=0.9692       H27-O25=0.9792       
O28-H29=0.9713       O28-H30=0.9776       H29-O28=0.9713       H30-O28=0.9776       O31-H32=0.9680       O31-H33=0.9678       
H32-O31=0.9680       H33-O31=0.9678       O34-H35=0.9569       O34-H36=0.9847       H35-O34=0.9569       H36-O34=0.9847       
O37-H38=0.9681       O37-H39=0.9685       H38-O37=0.9681       H39-O37=0.9685       O40-H41=0.9804       O40-H42=0.9754       
H41-O40=0.9804       H42-O40=0.9754       O43-H44=0.9669       O43-H45=0.9807       H44-O43=0.9669       H45-O43=0.9807       
O46-H47=0.9707       O46-H48=0.9804       H47-O46=0.9707       H48-O46=0.9804       O49-H50=0.9811       O49-H51=0.9752       
H50-O49=0.9811       H51-O49=0.9752       O52-H53=0.9824       O52-H54=0.9807       H53-O52=0.9824       H54-O52=0.9807       
O55-H56=0.9727       O55-H57=0.9725       H56-O55=0.9727       H57-O55=0.9725       O58-H59=0.9744       O58-H60=0.9780       
H59-O58=0.9744       H60-O58=0.9780       O61-H62=0.9608       O61-H63=0.9750       H62-O61=0.9608       H63-O61=0.9750       
O64-H65=0.9784       O64-H66=0.9737       H65-O64=0.9784       H66-O64=0.9737       O67-H68=0.9732       O67-H69=0.9741       
H68-O67=0.9732       H69-O67=0.9741       O70-H71=0.9743       O70-H72=0.9822       H71-O70=0.9743       H72-O70=0.9822       
O73-H74=0.9763       O73-H75=0.9787       H74-O73=0.9763       H75-O73=0.9787       O76-H77=0.9693       O76-H78=0.9761       
H77-O76=0.9693       H78-O76=0.9761       O79-H80=0.9796       O79-H81=0.9895       H80-O79=0.9796       H81-O79=0.9895       
O82-H83=0.9775       O82-H84=0.9718       H83-O82=0.9775       H84-O82=0.9718       O85-H86=0.9646       O85-H87=0.9733       
H86-O85=0.9646       H87-O85=0.9733       O88-H89=0.9799       O88-H90=0.9781       H89-O88=0.9799       H90-O88=0.9781       
O91-H92=0.9655       O91-H93=0.9716       H92-O91=0.9655       H93-O91=0.9716       O94-H95=0.9754       O94-H96=0.9639       
H95-O94=0.9754       H96-O94=0.9639       O97-H98=0.9846       O97-H99=0.9591       H98-O97=0.9846       H99-O97=0.9591       
O100-H101=0.9784     O100-H102=0.9752     H101-O100=0.9784     H102-O100=0.9752     O103-H104=0.9858     O103-H105=0.9743     
H104-O103=0.9858     H105-O103=0.9743     O106-H107=0.9735     O106-H108=0.9604     H107-O106=0.9735     H108-O106=0.9604     
O109-H110=0.9683     O109-H111=0.9672     H110-O109=0.9683     H111-O109=0.9672     O112-H113=0.9785     O112-H114=0.9669     
H113-O112=0.9785     H114-O112=0.9669     O115-H116=0.9836     O115-H117=0.9768     H116-O115=0.9836     H117-O115=0.9768     
O118-H119=0.9741     O118-H120=0.9758     H119-O118=0.9741     H120-O118=0.9758     O121-H122=0.9911     O121-H123=0.9587     
H122-O121=0.9911     H123-O121=0.9587     O124-H125=0.9773     O124-H126=0.9728     H125-O124=0.9773     H126-O124=0.9728     
O127-H128=0.9697     O127-H129=0.9731     H128-O127=0.9697     H129-O127=0.9731     O130-H131=0.9573     O130-H132=0.9880     
H131-O130=0.9573     H132-O130=0.9880     O133-H134=0.9685     O133-H135=0.9715     H134-O133=0.9685     H135-O133=0.9715     
O136-H137=0.9732     O136-H138=0.9668     H137-O136=0.9732     H138-O136=0.9668     O139-H140=0.9843     O139-H141=0.9602     
H140-O139=0.9843     H141-O139=0.9602     O142-H143=0.9727     O142-H144=0.9751     H143-O142=0.9727     H144-O142=0.9751     
O145-H146=0.9787     O145-H147=0.9722     H146-O145=0.9787     H147-O145=0.9722     O148-H149=0.9572     O148-H150=0.9666     
H149-O148=0.9572     H150-O148=0.9666     O151-H152=0.9797     O151-H153=0.9599     H152-O151=0.9797     H153-O151=0.9599     
O154-H155=0.9642     O154-H156=0.9761     H155-O154=0.9642     H156-O154=0.9761     O157-H158=0.9637     O157-H159=0.9756     
H158-O157=0.9637     H159-O157=0.9756     O160-H161=0.9787     O160-H162=0.9775     H161-O160=0.9787     H162-O160=0.9775     
O163-H164=0.9856     O163-H165=0.9627     H164-O163=0.9856     H165-O163=0.9627     O166-H167=0.9795     O166-H168=0.9743     
H167-O166=0.9795     H168-O166=0.9743     O169-H170=0.9693     O169-H171=0.9831     H170-O169=0.9693     H171-O169=0.9831     
O172-H173=0.9587     O172-H174=0.9761     H173-O172=0.9587     H174-O172=0.9761     O175-H176=0.9629     O175-H177=0.9722     
H176-O175=0.9629     H177-O175=0.9722     O178-H179=0.9734     O178-H180=0.9751     H179-O178=0.9734     H180-O178=0.9751     
O181-H182=0.9727     O181-H183=0.9804     H182-O181=0.9727     H183-O181=0.9804     O184-H185=0.9823     O184-H186=0.9740     
H185-O184=0.9823     H186-O184=0.9740     O187-H188=0.9747     O187-H189=0.9883     H188-O187=0.9747     H189-O187=0.9883     
O190-H191=0.9935     O190-H192=0.9564     H191-O190=0.9935     H192-O190=0.9564     O193-H194=0.9875     O193-H195=0.9760     
H194-O193=0.9875     H195-O193=0.9760     O196-H197=0.9701     O196-H198=0.9800     H197-O196=0.9701     H198-O196=0.9800     
O199-H200=0.9620     O199-H201=0.9758     H200-O199=0.9620     H201-O199=0.9758     O202-H203=0.9640     O202-H204=0.9815     
H203-O202=0.9640     H204-O202=0.9815     O205-H206=0.9722     O205-H207=0.9834     H206-O205=0.9722     H207-O205=0.9834     
O208-H209=0.9729     O208-H210=0.9606     H209-O208=0.9729     H210-O208=0.9606     O211-H212=0.9719     O211-H213=0.9769     
H212-O211=0.9719     H213-O211=0.9769     O214-H215=0.9686     O214-H216=0.9725     H215-O214=0.9686     H216-O214=0.9725     
O217-H218=0.9645     O217-H219=0.9721     H218-O217=0.9645     H219-O217=0.9721     O220-H221=0.9609     O220-H222=0.9704     
H221-O220=0.9609     H222-O220=0.9704     O223-H224=0.9717     O223-H225=0.9757     H224-O223=0.9717     H225-O223=0.9757     
O226-H227=0.9782     O226-H228=0.9718     H227-O226=0.9782     H228-O226=0.9718     O229-H230=0.9724     O229-H231=0.9782     
H230-O229=0.9724     H231-O229=0.9782     O232-H233=0.9764     O232-H234=0.9584     H233-O232=0.9764     H234-O232=0.9584     
O235-H236=0.9721     O235-H237=0.9845     H236-O235=0.9721     H237-O235=0.9845     O238-H239=0.9801     O238-H240=0.9802     
H239-O238=0.9801     H240-O238=0.9802     O241-H242=0.9626     O241-H243=0.9738     H242-O241=0.9626     H243-O241=0.9738     
O244-H245=0.9865     O244-H246=0.9642     H245-O244=0.9865     H246-O244=0.9642     O247-H248=0.9782     O247-H249=0.9730     
H248-O247=0.9782     H249-O247=0.9730     O250-H251=0.9720     O250-H252=0.9775     H251-O250=0.9720     H252-O250=0.9775     
O253-H254=0.9746     O253-H255=0.9678     H254-O253=0.9746     H255-O253=0.9678     O256-H257=0.9782     O256-H258=0.9799     
H257-O256=0.9782     H258-O256=0.9799     O259-H260=0.9650     O259-H261=0.9738     H260-O259=0.9650     H261-O259=0.9738     
O262-H263=0.9705     O262-H264=0.9667     H263-O262=0.9705     H264-O262=0.9667     O265-H266=0.9829     O265-H267=0.9635     
H266-O265=0.9829     H267-O265=0.9635     O268-H269=0.9805     O268-H270=0.9698     H269-O268=0.9805     H270-O268=0.9698     
O271-H272=0.9584     O271-H273=0.9813     H272-O271=0.9584     H273-O271=0.9813     O274-H275=0.9668     O274-H276=0.9743     
H275-O274=0.9668     H276-O274=0.9743     O277-H278=0.9647     O277-H279=0.9798     H278-O277=0.9647     H279-O277=0.9798     
O280-H281=0.9709     O280-H282=0.9893     H281-O280=0.9709     H282-O280=0.9893     O283-H284=0.9848     O283-H285=0.9563     
H284-O283=0.9848     H285-O283=0.9563     O286-H287=0.9783     O286-H288=0.9735     H287-O286=0.9783     H288-O286=0.9735     
O289-H290=0.9693     O289-H291=0.9691     H290-O289=0.9693     H291-O289=0.9691     O292-H293=0.9799     O292-H294=0.9834     
H293-O292=0.9799     H294-O292=0.9834     O295-H296=0.9718     O295-H297=0.9681     H296-O295=0.9718     H297-O295=0.9681     
O298-H299=0.9667     O298-H300=0.9792     H299-O298=0.9667     H300-O298=0.9792     O301-H302=0.9727     O301-H303=0.9720     
H302-O301=0.9727     H303-O301=0.9720     O304-H305=0.9929     O304-H306=0.9572     H305-O304=0.9929     H306-O304=0.9572     
O307-H308=0.9810     O307-H309=0.9712     H308-O307=0.9810     H309-O307=0.9712     O310-H311=0.9877     O310-H312=0.9571     
H311-O310=0.9877     H312-O310=0.9571     O313-H314=0.9798     O313-H315=0.9576     H314-O313=0.9798     H315-O313=0.9576     
O316-H317=0.9804     O316-H318=0.9733     H317-O316=0.9804     H318-O316=0.9733     O319-H320=0.9839     O319-H321=0.9803     
H320-O319=0.9839     H321-O319=0.9803     O322-H323=0.9771     O322-H324=0.9806     H323-O322=0.9771     H324-O322=0.9806     
O325-H326=0.9595     O325-H327=0.9847     H326-O325=0.9595     H327-O325=0.9847     O328-H329=0.9780     O328-H330=0.9697     
H329-O328=0.9780     H330-O328=0.9697     O331-H332=0.9777     O331-H333=0.9822     H332-O331=0.9777     H333-O331=0.9822     
O334-H335=0.9656     O334-H336=0.9879     H335-O334=0.9656     H336-O334=0.9879     O337-H338=0.9709     O337-H339=0.9693     
H338-O337=0.9709     H339-O337=0.9693     O340-H341=0.9787     O340-H342=0.9706     H341-O340=0.9787     H342-O340=0.9706     
O343-H344=0.9853     O343-H345=0.9617     H344-O343=0.9853     H345-O343=0.9617     O346-H347=0.9672     O346-H348=0.9661     
H347-O346=0.9672     H348-O346=0.9661     O349-H350=0.9790     O349-H351=0.9716     H350-O349=0.9790     H351-O349=0.9716     
O352-H353=0.9714     O352-H354=0.9808     H353-O352=0.9714     H354-O352=0.9808     O355-H356=0.9742     O355-H357=0.9584     
H356-O355=0.9742     H357-O355=0.9584     O358-H359=0.9848     O358-H360=0.9629     H359-O358=0.9848     H360-O358=0.9629     
O361-H362=0.9734     O361-H363=0.9777     H362-O361=0.9734     H363-O361=0.9777     O364-H365=0.9938     O364-H366=0.9577     
H365-O364=0.9938     H366-O364=0.9577     O367-H368=0.9625     O367-H369=0.9838     H368-O367=0.9625     H369-O367=0.9838     
O370-H371=0.9635     O370-H372=0.9684     H371-O370=0.9635     H372-O370=0.9684     O373-H374=0.9671     O373-H375=0.9789     
H374-O373=0.9671     H375-O373=0.9789     O376-H377=0.9925     O376-H378=0.9725     H377-O376=0.9925     H378-O376=0.9725     
O379-H380=0.9885     O379-H381=0.9658     H380-O379=0.9885     H381-O379=0.9658     O382-H383=0.9750     O382-H384=0.9719     
H383-O382=0.9750     H384-O382=0.9719     O385-H386=0.9850     O385-H387=0.9707     H386-O385=0.9850     H387-O385=0.9707     
O388-H389=0.9744     O388-H390=0.9746     H389-O388=0.9744     H390-O388=0.9746     O391-H392=0.9740     O391-H393=0.9812     
H392-O391=0.9740     H393-O391=0.9812     O394-H395=0.9737     O394-H396=0.9705     H395-O394=0.9737     H396-O394=0.9705     
O397-H398=0.9736     O397-H399=0.9760     H398-O397=0.9736     H399-O397=0.9760     O400-H401=0.9700     O400-H402=0.9777     
H401-O400=0.9700     H402-O400=0.9777     O403-H404=0.9567     O403-H405=1.0016     H404-O403=0.9567     H405-O403=1.0016     
O406-H407=0.9601     O406-H408=0.9855     H407-O406=0.9601     H408-O406=0.9855     O409-H410=0.9810     O409-H411=0.9746     
H410-O409=0.9810     H411-O409=0.9746     O412-H413=0.9801     O412-H414=0.9663     H413-O412=0.9801     H414-O412=0.9663     
O415-H416=0.9865     O415-H417=0.9581     H416-O415=0.9865     H417-O415=0.9581     O418-H419=0.9694     O418-H420=0.9792     
H419-O418=0.9694     H420-O418=0.9792     O421-H422=0.9591     O421-H423=0.9942     H422-O421=0.9591     H423-O421=0.9942     
O424-H425=0.9751     O424-H426=0.9677     H425-O424=0.9751     H426-O424=0.9677     O427-H428=0.9812     O427-H429=0.9745     
H428-O427=0.9812     H429-O427=0.9745     O430-H431=0.9763     O430-H432=0.9813     H431-O430=0.9763     H432-O430=0.9813     
O433-H434=0.9761     O433-H435=0.9760     H434-O433=0.9761     H435-O433=0.9760     O436-H437=0.9845     O436-H438=0.9764     
H437-O436=0.9845     H438-O436=0.9764     O439-H440=0.9652     O439-H441=0.9642     H440-O439=0.9652     H441-O439=0.9642     
O442-H443=0.9770     O442-H444=0.9668     H443-O442=0.9770     H444-O442=0.9668     O445-H446=0.9747     O445-H447=0.9667     
H446-O445=0.9747     H447-O445=0.9667     O448-H449=0.9640     O448-H450=0.9640     H449-O448=0.9640     H450-O448=0.9640     
O451-H452=0.9844     O451-H453=0.9590     H452-O451=0.9844     H453-O451=0.9590     O454-H455=0.9682     O454-H456=0.9680     
H455-O454=0.9682     H456-O454=0.9680     O457-H458=0.9621     O457-H459=0.9739     H458-O457=0.9621     H459-O457=0.9739     
O460-H461=0.9699     O460-H462=0.9718     H461-O460=0.9699     H462-O460=0.9718     O463-H464=0.9774     O463-H465=0.9647     
H464-O463=0.9774     H465-O463=0.9647     O466-H467=0.9786     O466-H468=0.9625     H467-O466=0.9786     H468-O466=0.9625     
O469-H470=0.9665     O469-H471=0.9708     H470-O469=0.9665     H471-O469=0.9708     O472-H473=0.9722     O472-H474=0.9770     
H473-O472=0.9722     H474-O472=0.9770     O475-H476=0.9685     O475-H477=0.9697     H476-O475=0.9685     H477-O475=0.9697     
O478-H479=0.9597     O478-H480=0.9819     H479-O478=0.9597     H480-O478=0.9819     O481-H482=0.9668     O481-H483=0.9763     
H482-O481=0.9668     H483-O481=0.9763     O484-H485=0.9689     O484-H486=0.9691     H485-O484=0.9689     H486-O484=0.9691     
O487-H488=0.9875     O487-H489=0.9682     H488-O487=0.9875     H489-O487=0.9682     O490-H491=0.9806     O490-H492=0.9790     
H491-O490=0.9806     H492-O490=0.9790     O493-H494=0.9646     O493-H495=0.9712     H494-O493=0.9646     H495-O493=0.9712     
O496-H497=0.9828     O496-H498=0.9658     H497-O496=0.9828     H498-O496=0.9658     O499-H500=0.9784     O499-H501=0.9616     
H500-O499=0.9784     H501-O499=0.9616     O502-H503=0.9759     O502-H504=0.9606     H503-O502=0.9759     H504-O502=0.9606     
O505-H506=0.9696     O505-H507=0.9748     H506-O505=0.9696     H507-O505=0.9748     O508-H509=0.9622     O508-H510=0.9769     
H509-O508=0.9622     H510-O508=0.9769     O511-H512=0.9608     O511-H513=0.9824     H512-O511=0.9608     H513-O511=0.9824     
O514-H515=0.9688     O514-H516=0.9812     H515-O514=0.9688     H516-O514=0.9812     O517-H518=0.9631     O517-H519=0.9742     
H518-O517=0.9631     H519-O517=0.9742     O520-H521=0.9711     O520-H522=0.9781     H521-O520=0.9711     H522-O520=0.9781     
O523-H524=0.9675     O523-H525=0.9726     H524-O523=0.9675     H525-O523=0.9726     O526-H527=0.9621     O526-H528=0.9803     
H527-O526=0.9621     H528-O526=0.9803     O529-H530=0.9619     O529-H531=0.9814     H530-O529=0.9619     H531-O529=0.9814     
O532-H533=0.9839     O532-H534=0.9789     H533-O532=0.9839     H534-O532=0.9789     O535-H536=0.9807     O535-H537=0.9700     
H536-O535=0.9807     H537-O535=0.9700     O538-H539=0.9775     O538-H540=0.9734     H539-O538=0.9775     H540-O538=0.9734     
O541-H542=0.9853     O541-H543=0.9635     H542-O541=0.9853     H543-O541=0.9635     O544-H545=0.9734     O544-H546=0.9745     
H545-O544=0.9734     H546-O544=0.9745     O547-H548=0.9817     O547-H549=0.9822     H548-O547=0.9817     H549-O547=0.9822     
O550-H551=0.9786     O550-H552=0.9810     H551-O550=0.9786     H552-O550=0.9810     O553-H554=0.9666     O553-H555=0.9798     
H554-O553=0.9666     H555-O553=0.9798     O556-H557=0.9715     O556-H558=0.9665     H557-O556=0.9715     H558-O556=0.9665     
O559-H560=0.9767     O559-H561=0.9749     H560-O559=0.9767     H561-O559=0.9749     O562-H563=0.9852     O562-H564=0.9728     
H563-O562=0.9852     H564-O562=0.9728     O565-H566=0.9764     O565-H567=0.9660     H566-O565=0.9764     H567-O565=0.9660     
O568-H569=0.9671     O568-H570=0.9851     H569-O568=0.9671     H570-O568=0.9851     O571-H572=0.9828     O571-H573=0.9669     
H572-O571=0.9828     H573-O571=0.9669     O574-H575=0.9775     O574-H576=0.9598     H575-O574=0.9775     H576-O574=0.9598     
O577-H578=0.9813     O577-H579=0.9739     H578-O577=0.9813     H579-O577=0.9739     O580-H581=0.9805     O580-H582=0.9704     
H581-O580=0.9805     H582-O580=0.9704     O583-H584=0.9596     O583-H585=0.9761     H584-O583=0.9596     H585-O583=0.9761     
O586-H587=0.9774     O586-H588=0.9705     H587-O586=0.9774     H588-O586=0.9705     O589-H590=0.9814     O589-H591=0.9803     
H590-O589=0.9814     H591-O589=0.9803     O592-H593=0.9715     O592-H594=0.9735     H593-O592=0.9715     H594-O592=0.9735     
O595-H596=0.9576     O595-H597=0.9912     H596-O595=0.9576     H597-O595=0.9912     O598-H599=0.9674     O598-H600=0.9763     
H599-O598=0.9674     H600-O598=0.9763     O601-H602=0.9717     O601-H603=0.9673     H602-O601=0.9717     H603-O601=0.9673     
O604-H605=0.9763     O604-H606=0.9741     H605-O604=0.9763     H606-O604=0.9741     O607-H608=0.9818     O607-H609=0.9600     
H608-O607=0.9818     H609-O607=0.9600     O610-H611=0.9668     O610-H612=0.9809     H611-O610=0.9668     H612-O610=0.9809     
 C  H  Rav=1.0853 sigma=0.0014  Rmin=1.0831  Rmax=1.0872     4
 C  C  Rav=1.5142 sigma=0.0000  Rmin=1.5142  Rmax=1.5142     1
 N  H  Rav=1.0390 sigma=0.0077  Rmin=1.0308  Rmax=1.0492     3
 N  C  Rav=1.4710 sigma=0.0000  Rmin=1.4710  Rmax=1.4710     1
 O  H  Rav=0.9735 sigma=0.0082  Rmin=0.9563  Rmax=1.0016   401
 O  C  Rav=1.4160 sigma=0.0000  Rmin=1.4160  Rmax=1.4160     1
 
 selected bond angles (degree)
 --------------------
H3-C2-H1=109.41                C4-C2-H1=108.46                C4-C2-H3=110.97                O7-C2-H1=109.36                
O7-C2-H3=106.48                O7-C2-C4=112.13                H5-C4-C2=110.49                H6-C4-C2=109.96                
H6-C4-H5=109.52                N9-C4-C2=109.35                N9-C4-H5=108.09                N9-C4-H6=109.40                
H8-O7-C2=108.74                H10-N9-C4=110.81               H11-N9-C4=106.90               H11-N9-H10=111.36              
H12-N9-C4=108.24               H12-N9-H10=109.56              H12-N9-H11=109.89              
 
 selected dihedral angles (degree)
 ---------------------------------
H5-C4-C2-H1=202.18            H5-C4-C2-H3= 81.97            H5-C4-C2-O7=323.05            H6-C4-C2-H1= 81.17            
H6-C4-C2-H3=320.96            H6-C4-C2-O7=202.03            N9-C4-C2-H1=321.03            N9-C4-C2-H3=200.82            
N9-C4-C2-O7= 81.89            H8-O7-C2-H1= 62.19            H8-O7-C2-H3=180.31            H8-O7-C2-C4=301.85            
H10-N9-C4-C2=308.08           H10-N9-C4-H5= 68.41           H10-N9-C4-H6=187.60           H11-N9-C4-C2=186.57           
H11-N9-C4-H5=306.89           H11-N9-C4-H6= 66.09           H12-N9-C4-C2= 68.24           H12-N9-C4-H5=188.57           
H12-N9-C4-H6=307.76           
 
 CMA Distance (Angstroems)
 ---------------------------
R(CMA):  1.2172
           -------------------------------------------------
          |                Final Singlepoint                |
           -------------------------------------------------

          ...................................................
          :                      SETUP                      :
          :.................................................:
          :  # basis functions                1224          :
          :  # atomic orbitals                1224          :
          :  # shells                          816          :
          :  # electrons                      1626          :
          :  max. iterations                   250          :
          :  Hamiltonian                  GFN2-xTB          :
          :  restarted?                      false          :
          :  GBSA solvation                  false          :
          :  PC potential                    false          :
          :  electronic temp.          300.0000000     K    :
          :  accuracy                    1.0000000          :
          :  -> integral cutoff          0.2500000E+02      :
          :  -> integral neglect         0.1000000E-07      :
          :  -> SCF convergence          0.1000000E-05 Eh   :
          :  -> wf. convergence          0.1000000E-03 e    :
          :  Broyden damping             0.4000000          :
          ...................................................

 iter      E             dE          RMSdq      gap      omega  full diag
   1  -1039.8291100 -0.103983E+04  0.247E-05    7.93       0.0  T
   2  -1039.8291100 -0.341061E-11  0.148E-05    7.93     273.2  T
   3  -1039.8291100 -0.386535E-11  0.158E-06    7.93    2561.6  T

   *** convergence criteria satisfied after 3 iterations ***

         #    Occupation            Energy/Eh            Energy/eV
      -------------------------------------------------------------
         1        2.0000           -0.7461685             -20.3043
       ...           ...                  ...                  ...
       807        2.0000           -0.4620533             -12.5731
       808        2.0000           -0.4619359             -12.5699
       809        2.0000           -0.4609109             -12.5420
       810        2.0000           -0.4591652             -12.4945
       811        2.0000           -0.4580501             -12.4642
       812        2.0000           -0.4525987             -12.3158
       813        2.0000           -0.4464816             -12.1494 (HOMO)
       814                         -0.1549567              -4.2166 (LUMO)
       815                         -0.1398678              -3.8060
       816                         -0.1315305              -3.5791
       817                         -0.1233305              -3.3560
       818                         -0.1171676              -3.1883
       ...                                ...                  ...
      1224                          0.3705284              10.0826
      -------------------------------------------------------------
                  HL-Gap            0.2915249 Eh            7.9328 eV
             Fermi-level           -0.3007192 Eh           -8.1830 eV

 SCC (total)                   0 d,  0 h,  0 min, 12.331 sec
 SCC setup                      ...        0 min,  0.032 sec (  0.262%)
 Dispersion                     ...        0 min,  0.083 sec (  0.673%)
 classical contributions        ...        0 min,  0.021 sec (  0.167%)
 integral evaluation            ...        0 min,  0.687 sec (  5.570%)
 iterations                     ...        0 min,  1.990 sec ( 16.140%)
 molecular gradient             ...        0 min,  9.447 sec ( 76.615%)
 printout                       ...        0 min,  0.071 sec (  0.572%)

         :::::::::::::::::::::::::::::::::::::::::::::::::::::
         ::                     SUMMARY                     ::
         :::::::::::::::::::::::::::::::::::::::::::::::::::::
         :: total energy           -1033.480902710045 Eh    ::
         :: gradient norm              0.000447907254 Eh/a0 ::
         :: HOMO-LUMO gap              7.932796205794 eV    ::
         ::.................................................::
         :: SCC energy             -1039.829109995419 Eh    ::
         :: -> isotropic ES            5.732746980696 Eh    ::
         :: -> anisotropic ES         -1.313041119598 Eh    ::
         :: -> anisotropic XC         -0.097469991633 Eh    ::
         :: -> dispersion             -0.635032958163 Eh    ::
         :: repulsion energy           6.223704574153 Eh    ::
         :: add. restraining           0.000000000000 Eh    ::
         :: total charge               1.000000000000 e     ::
         :::::::::::::::::::::::::::::::::::::::::::::::::::::

           ------------------------------------------------- 
          |                Numerical Hessian                |
           ------------------------------------------------- 
step length          :   0.00500
SCC accuracy         :   0.30000
Hessian scale factor :   1.00000
frozen atoms in %    :   0.00000    0
RMS gradient         :   0.00045
estimated CPU  time    759.19 min
estimated wall time    761.11 min
