      -----------------------------------------------------------      
     |                   =====================                   |     
     |                           x T B                           |     
     |                   =====================                   |     
     |                         S. Grimme                         |     
     |          Mulliken Center for Theoretical Chemistry        |     
     |                    University of Bonn                     |     
      -----------------------------------------------------------      

   * xtb version 6.5.1 (579679a) compiled by 'ehlert@majestix' on 2022-07-11

   xtb is free software: you can redistribute it and/or modify it under
   the terms of the GNU Lesser General Public License as published by
   the Free Software Foundation, either version 3 of the License, or
   (at your option) any later version.
   
   xtb is distributed in the hope that it will be useful,
   but WITHOUT ANY WARRANTY; without even the implied warranty of
   MERCHANTABILITY or FITNESS FOR A PARTICULAR PURPOSE.  See the
   GNU Lesser General Public License for more details.
   
   Cite this work as:
   * C. Bannwarth, E. Caldeweyher, S. Ehlert, A. Hansen, P. Pracht,
     J. Seibert, S. Spicher, S. Grimme, WIREs Comput. Mol. Sci., 2020, 11,
     e01493. DOI: 10.1002/wcms.1493
   
   for GFN2-xTB:
   * C. Bannwarth, S. Ehlert and S. Grimme., J. Chem. Theory Comput., 2019,
     15, 1652-1671. DOI: 10.1021/acs.jctc.8b01176
   for GFN1-xTB:
   * S. Grimme, C. Bannwarth, P. Shushkov, J. Chem. Theory Comput., 2017,
     13, 1989-2009. DOI: 10.1021/acs.jctc.7b00118
   for GFN0-xTB:
   * P. Pracht, E. Caldeweyher, S. Ehlert, S. Grimme, ChemRxiv, 2019, preprint.
     DOI: 10.26434/chemrxiv.8326202.v1
   for GFN-FF:
   * S. Spicher and S. Grimme, Angew. Chem. Int. Ed., 2020, 59, 15665-15673.
     DOI: 10.1002/anie.202004239
   
   for ALPB and GBSA implicit solvation:
   * S. Ehlert, M. Stahn, S. Spicher, S. Grimme, J. Chem. Theory Comput.,
     2021, 17, 4250-4261. DOI: 10.1021/acs.jctc.1c00471
   
   for DFT-D4:
   * E. Caldeweyher, C. Bannwarth and S. Grimme, J. Chem. Phys., 2017,
     147, 034112. DOI: 10.1063/1.4993215
   * E. Caldeweyher, S. Ehlert, A. Hansen, H. Neugebauer, S. Spicher,
     C. Bannwarth and S. Grimme, J. Chem. Phys., 2019, 150, 154122.
     DOI: 10.1063/1.5090222
   * E. Caldeweyher, J.-M. Mewes, S. Ehlert and S. Grimme, Phys. Chem. Chem. Phys.
     2020, 22, 8499-8512. DOI: 10.1039/D0CP00502A
   
   for sTDA-xTB:
   * S. Grimme and C. Bannwarth, J. Chem. Phys., 2016, 145, 054103.
     DOI: 10.1063/1.4959605
   
   in the mass-spec context:
   * V. Asgeirsson, C. Bauer and S. Grimme, Chem. Sci., 2017, 8, 4879.
     DOI: 10.1039/c7sc00601b
   * J. Koopman and S. Grimme, ACS Omega 2019, 4, 12, 15120-15133.
     DOI: 10.1021/acsomega.9b02011
   
   for metadynamics refer to:
   * S. Grimme, J. Chem. Theory Comput., 2019, 155, 2847-2862
     DOI: 10.1021/acs.jctc.9b00143
   
   for SPH calculations refer to:
   * S. Spicher and S. Grimme, J. Chem. Theory Comput., 2021, 17, 1701-1714
     DOI: 10.1021/acs.jctc.0c01306
   
   with help from (in alphabetical order)
   P. Atkinson, C. Bannwarth, F. Bohle, G. Brandenburg, E. Caldeweyher
   M. Checinski, S. Dohm, S. Ehlert, S. Ehrlich, I. Gerasimov, C. Hölzer
   A. Katbashev, J. Koopman, C. Lavigne, S. Lehtola, F. März, M. Müller,
   F. Musil, H. Neugebauer, J. Pisarek, C. Plett, P. Pracht, F. Pultar,
   J. Seibert, P. Shushkov, S. Spicher, M. Stahn, M. Steiner, T. Strunk,
   J. Stückrath, T. Rose, and J. Unsleber
   
 * started run on 2022/10/27 at 21:39:21.414     

           -------------------------------------------------
          |                Calculation Setup                |
           -------------------------------------------------

          program call               : xtb solvent --gfn2 --sp --lmo
          hostname                   : cn0725
          coordinate file            : solvent
          omp threads                :                    25

   ID    Z sym.   atoms
    1    8 o      1
    2    1 h      2, 3

           -------------------------------------------------
          |                 G F N 2 - x T B                 |
           -------------------------------------------------

        Reference                      10.1021/acs.jctc.8b01176
      * Hamiltonian:
        H0-scaling (s, p, d)           1.850000    2.230000    2.230000
        zeta-weighting                 0.500000
      * Dispersion:
        s8                             2.700000
        a1                             0.520000
        a2                             5.000000
        s9                             5.000000
      * Repulsion:
        kExp                           1.500000    1.000000
        rExp                           1.000000
      * Coulomb:
        alpha                          2.000000
        third order                    shell-resolved
        anisotropic                    true
        a3                             3.000000
        a5                             4.000000
        cn-shift                       1.200000
        cn-exp                         4.000000
        max-rad                        5.000000


          ...................................................
          :                      SETUP                      :
          :.................................................:
          :  # basis functions                   6          :
          :  # atomic orbitals                   6          :
          :  # shells                            4          :
          :  # electrons                         8          :
          :  max. iterations                   250          :
          :  Hamiltonian                  GFN2-xTB          :
          :  restarted?                      false          :
          :  GBSA solvation                  false          :
          :  PC potential                    false          :
          :  electronic temp.          300.0000000     K    :
          :  accuracy                    1.0000000          :
          :  -> integral cutoff          0.2500000E+02      :
          :  -> integral neglect         0.1000000E-07      :
          :  -> SCF convergence          0.1000000E-05 Eh   :
          :  -> wf. convergence          0.1000000E-03 e    :
          :  Broyden damping             0.4000000          :
          ...................................................

 iter      E             dE          RMSdq      gap      omega  full diag
   1     -5.1033990 -0.510340E+01  0.422E+00   14.76       0.0  T
   2     -5.1046188 -0.121980E-02  0.243E+00   14.49       1.0  T
   3     -5.1048487 -0.229936E-03  0.373E-01   14.27       1.0  T
   4     -5.1049077 -0.590068E-04  0.858E-02   14.42       1.0  T
   5     -5.1049114 -0.360557E-05  0.502E-02   14.37       1.2  T
   6     -5.1049128 -0.139682E-05  0.104E-03   14.39      55.7  T
   7     -5.1049128 -0.253439E-09  0.819E-04   14.39      70.5  T
   8     -5.1049128 -0.394889E-09  0.203E-05   14.39    2838.7  T

   *** convergence criteria satisfied after 8 iterations ***

         #    Occupation            Energy/Eh            Energy/eV
      -------------------------------------------------------------
         1        2.0000           -0.6800833             -18.5060
         2        2.0000           -0.5683059             -15.4644
         3        2.0000           -0.5108700             -13.9015
         4        2.0000           -0.4463856             -12.1468 (HOMO)
         5                          0.0824283               2.2430 (LUMO)
         6                          0.2514899               6.8434
      -------------------------------------------------------------
                  HL-Gap            0.5288139 Eh           14.3898 eV
             Fermi-level           -0.1819787 Eh           -4.9519 eV
 
 localization/xTB-IFF output generation
 averaging CT terms over            1  occ. levels
 averaging CT terms over            1  virt. levels
 dipole moment from electron density (au)
     X       Y       Z   
  -0.2691  -0.5803   0.5931  total (Debye):    2.217
cpu  time for init local    0.02 s
wall time for init local    0.00 s
 doing rotations ...
 initialization of trafo matrix to unity

 converged in     10 iterations, threshold :   0.97562128D-06
 doing transformations ...
 lmo centers(Z=2) and atoms on file <lmocent.coord>
 LMO Fii/eV  ncent    charge center   contributions...
    1 sigma -16.18   1.86   0.45618  -0.09725   0.82503    1O :  0.63    2H :  0.37
    2 sigma -16.18   1.86  -0.75538  -0.54791  -0.16562    1O :  0.63    3H :  0.37
    3 LP    -13.83   0.98  -0.55842   1.71463  -0.09707    1O :  1.01
    4 LP    -13.83   0.98   1.19661  -0.33847  -1.30948    1O :  1.01
 files:
 coordprot.0/xtbscreen.xyz/xtblmoinfo/lmocent.coord
 with protonation site input, xtbdock and
 LMO center info written
 

 SCC (total)                   0 d,  0 h,  0 min,  0.011 sec
 SCC setup                      ...        0 min,  0.000 sec (  3.590%)
 Dispersion                     ...        0 min,  0.000 sec (  2.248%)
 classical contributions        ...        0 min,  0.000 sec (  1.746%)
 integral evaluation            ...        0 min,  0.001 sec (  5.838%)
 iterations                     ...        0 min,  0.002 sec ( 14.638%)
 molecular gradient             ...        0 min,  0.001 sec (  7.895%)
 printout                       ...        0 min,  0.007 sec ( 62.023%)

         :::::::::::::::::::::::::::::::::::::::::::::::::::::
         ::                     SUMMARY                     ::
         :::::::::::::::::::::::::::::::::::::::::::::::::::::
         :: total energy              -5.070544447820 Eh    ::
         :: gradient norm              0.000000594698 Eh/a0 ::
         :: HOMO-LUMO gap             14.389759473879 eV    ::
         ::.................................................::
         :: SCC energy                -5.104912750950 Eh    ::
         :: -> isotropic ES            0.031459052957 Eh    ::
         :: -> anisotropic ES          0.000395693216 Eh    ::
         :: -> anisotropic XC         -0.000881543083 Eh    ::
         :: -> dispersion             -0.000141084562 Eh    ::
         :: repulsion energy           0.034368303104 Eh    ::
         :: add. restraining           0.000000000000 Eh    ::
         :: total charge               0.000000000000 e     ::
         :::::::::::::::::::::::::::::::::::::::::::::::::::::

           -------------------------------------------------
          |                Property Printout                |
           -------------------------------------------------

    * Orbital Energies and Occupations

         #    Occupation            Energy/Eh            Energy/eV
      -------------------------------------------------------------
         1        2.0000           -0.6800833             -18.5060
         2        2.0000           -0.5683059             -15.4644
         3        2.0000           -0.5108700             -13.9015
         4        2.0000           -0.4463856             -12.1468 (HOMO)
         5                          0.0824283               2.2430 (LUMO)
         6                          0.2514899               6.8434
      -------------------------------------------------------------
                  HL-Gap            0.5288139 Eh           14.3898 eV
             Fermi-level           -0.1819787 Eh           -4.9519 eV

     #   Z          covCN         q      C6AA      α(0)
     1   8 o        1.611    -0.565    24.358     6.661
     2   1 h        0.805     0.282     0.776     1.384
     3   1 h        0.805     0.282     0.776     1.384

 Mol. C6AA /au·bohr⁶  :         44.535250
 Mol. C8AA /au·bohr⁸  :        795.736490
 Mol. α(0) /au        :          9.429121


Wiberg/Mayer (AO) data.
largest (>0.10) Wiberg bond orders for each atom

 ---------------------------------------------------------------------------
     #   Z sym  total        # sym  WBO       # sym  WBO       # sym  WBO
 ---------------------------------------------------------------------------
     1   8 o    1.840 --     2 h    0.920     3 h    0.920
     2   1 h    0.920 --     1 o    0.920
     3   1 h    0.920 --     1 o    0.920
 ---------------------------------------------------------------------------

Topologies differ in total number of bonds
Writing topology from bond orders to xtbtopo.mol

molecular dipole:
                 x           y           z       tot (Debye)
 q only:       -0.187      -0.404       0.413
   full:       -0.269      -0.580       0.593       2.217
molecular quadrupole (traceless):
                xx          xy          yy          xz          yz          zz
 q only:        0.216       0.527      -0.380       0.657      -0.040       0.164
  q+dip:        0.282       0.674      -0.491       0.849      -0.042       0.208
   full:        0.310       0.833      -0.576       0.992      -0.106       0.266


           -------------------------------------------------
          | TOTAL ENERGY               -5.070544447820 Eh   |
          | GRADIENT NORM               0.000000594698 Eh/α |
          | HOMO-LUMO GAP              14.389759473879 eV   |
           -------------------------------------------------

------------------------------------------------------------------------
 * finished run on 2022/10/27 at 21:39:21.484     
------------------------------------------------------------------------
 total:
 * wall-time:     0 d,  0 h,  0 min,  0.070 sec
 *  cpu-time:     0 d,  0 h,  0 min,  0.907 sec
 * ratio c/w:    12.982 speedup
 SCF:
 * wall-time:     0 d,  0 h,  0 min,  0.012 sec
 *  cpu-time:     0 d,  0 h,  0 min,  0.278 sec
 * ratio c/w:    24.020 speedup

