      -----------------------------------------------------------      
     |                   =====================                   |     
     |                           x T B                           |     
     |                   =====================                   |     
     |                         S. Grimme                         |     
     |          Mulliken Center for Theoretical Chemistry        |     
     |                    University of Bonn                     |     
      -----------------------------------------------------------      

   * xtb version 6.5.1 (579679a) compiled by 'ehlert@majestix' on 2022-07-11

   xtb is free software: you can redistribute it and/or modify it under
   the terms of the GNU Lesser General Public License as published by
   the Free Software Foundation, either version 3 of the License, or
   (at your option) any later version.
   
   xtb is distributed in the hope that it will be useful,
   but WITHOUT ANY WARRANTY; without even the implied warranty of
   MERCHANTABILITY or FITNESS FOR A PARTICULAR PURPOSE.  See the
   GNU Lesser General Public License for more details.
   
   Cite this work as:
   * C. Bannwarth, E. Caldeweyher, S. Ehlert, A. Hansen, P. Pracht,
     J. Seibert, S. Spicher, S. Grimme, WIREs Comput. Mol. Sci., 2020, 11,
     e01493. DOI: 10.1002/wcms.1493
   
   for GFN2-xTB:
   * C. Bannwarth, S. Ehlert and S. Grimme., J. Chem. Theory Comput., 2019,
     15, 1652-1671. DOI: 10.1021/acs.jctc.8b01176
   for GFN1-xTB:
   * S. Grimme, C. Bannwarth, P. Shushkov, J. Chem. Theory Comput., 2017,
     13, 1989-2009. DOI: 10.1021/acs.jctc.7b00118
   for GFN0-xTB:
   * P. Pracht, E. Caldeweyher, S. Ehlert, S. Grimme, ChemRxiv, 2019, preprint.
     DOI: 10.26434/chemrxiv.8326202.v1
   for GFN-FF:
   * S. Spicher and S. Grimme, Angew. Chem. Int. Ed., 2020, 59, 15665-15673.
     DOI: 10.1002/anie.202004239
   
   for ALPB and GBSA implicit solvation:
   * S. Ehlert, M. Stahn, S. Spicher, S. Grimme, J. Chem. Theory Comput.,
     2021, 17, 4250-4261. DOI: 10.1021/acs.jctc.1c00471
   
   for DFT-D4:
   * E. Caldeweyher, C. Bannwarth and S. Grimme, J. Chem. Phys., 2017,
     147, 034112. DOI: 10.1063/1.4993215
   * E. Caldeweyher, S. Ehlert, A. Hansen, H. Neugebauer, S. Spicher,
     C. Bannwarth and S. Grimme, J. Chem. Phys., 2019, 150, 154122.
     DOI: 10.1063/1.5090222
   * E. Caldeweyher, J.-M. Mewes, S. Ehlert and S. Grimme, Phys. Chem. Chem. Phys.
     2020, 22, 8499-8512. DOI: 10.1039/D0CP00502A
   
   for sTDA-xTB:
   * S. Grimme and C. Bannwarth, J. Chem. Phys., 2016, 145, 054103.
     DOI: 10.1063/1.4959605
   
   in the mass-spec context:
   * V. Asgeirsson, C. Bauer and S. Grimme, Chem. Sci., 2017, 8, 4879.
     DOI: 10.1039/c7sc00601b
   * J. Koopman and S. Grimme, ACS Omega 2019, 4, 12, 15120-15133.
     DOI: 10.1021/acsomega.9b02011
   
   for metadynamics refer to:
   * S. Grimme, J. Chem. Theory Comput., 2019, 155, 2847-2862
     DOI: 10.1021/acs.jctc.9b00143
   
   for SPH calculations refer to:
   * S. Spicher and S. Grimme, J. Chem. Theory Comput., 2021, 17, 1701-1714
     DOI: 10.1021/acs.jctc.0c01306
   
   with help from (in alphabetical order)
   P. Atkinson, C. Bannwarth, F. Bohle, G. Brandenburg, E. Caldeweyher
   M. Checinski, S. Dohm, S. Ehlert, S. Ehrlich, I. Gerasimov, C. Hölzer
   A. Katbashev, J. Koopman, C. Lavigne, S. Lehtola, F. März, M. Müller,
   F. Musil, H. Neugebauer, J. Pisarek, C. Plett, P. Pracht, F. Pultar,
   J. Seibert, P. Shushkov, S. Spicher, M. Stahn, M. Steiner, T. Strunk,
   J. Stückrath, T. Rose, and J. Unsleber
   
 * started run on 2022/11/17 at 06:48:47.983     

           -------------------------------------------------
          |                Calculation Setup                |
           -------------------------------------------------

          program call               : xtb solvent_cluster.coord --gfn2 --input xcontrol --opt 1
          hostname                   : cn0363
          coordinate file            : solvent_cluster.coord
          omp threads                :                     2

   ID    Z sym.   atoms
    1    8 o      1, 4, 7, 10, 13, 16, 19, 22, 25, 28, 31, 34, 37, 40, 43,
                  46, 49, 52, 55, 58, 61, 64, 67, 70, 73, 76, 79, 82, 85, 88,
                  91, 94, 97, 100, 103, 106, 109, 112, 115, 118, 121, 124,
                  127, 130, 133, 136, 139, 142, 145, 148, 151, 154, 157, 160,
                  163, 166, 169, 172, 175, 178, 181, 184, 187, 190, 193, 196,
                  199, 202, 205, 208, 211, 214, 217, 220, 223, 226, 229, 232,
                  235, 238, 241, 244, 247, 250, 253, 256, 259, 262, 265, 268,
                  271, 274, 277, 280, 283, 286, 289, 292, 295, 298, 301, 304,
                  307, 310, 313, 316, 319, 322, 325, 328, 331, 334, 337, 340,
                  343, 346, 349, 352, 355, 358, 361, 364, 367, 370, 373, 376,
                  379, 382, 385, 388, 391, 394, 397, 400, 403, 406, 409, 412,
                  415, 418, 421, 424, 427, 430, 433, 436, 439, 442, 445, 448,
                  451, 454, 457, 460, 463, 466, 469, 472, 475, 478, 481, 484,
                  487, 490, 493, 496, 499, 502, 505, 508, 511, 514, 517, 520,
                  523, 526, 529
    2    1 h      2, 3, 5, 6, 8, 9, 11, 12, 14, 15, 17, 18, 20, 21, 23, 24,
                  26, 27, 29, 30, 32, 33, 35, 36, 38, 39, 41, 42, 44, 45, 47,
                  48, 50, 51, 53, 54, 56, 57, 59, 60, 62, 63, 65, 66, 68, 69,
                  71, 72, 74, 75, 77, 78, 80, 81, 83, 84, 86, 87, 89, 90, 92,
                  93, 95, 96, 98, 99, 101, 102, 104, 105, 107, 108, 110, 111,
                  113, 114, 116, 117, 119, 120, 122, 123, 125, 126, 128, 129,
                  131, 132, 134, 135, 137, 138, 140, 141, 143, 144, 146, 147,
                  149, 150, 152, 153, 155, 156, 158, 159, 161, 162, 164, 165,
                  167, 168, 170, 171, 173, 174, 176, 177, 179, 180, 182, 183,
                  185, 186, 188, 189, 191, 192, 194, 195, 197, 198, 200, 201,
                  203, 204, 206, 207, 209, 210, 212, 213, 215, 216, 218, 219,
                  221, 222, 224, 225, 227, 228, 230, 231, 233, 234, 236, 237,
                  239, 240, 242, 243, 245, 246, 248, 249, 251, 252, 254, 255,
                  257, 258, 260, 261, 263, 264, 266, 267, 269, 270, 272, 273,
                  275, 276, 278, 279, 281, 282, 284, 285, 287, 288, 290, 291,
                  293, 294, 296, 297, 299, 300, 302, 303, 305, 306, 308, 309,
                  311, 312, 314, 315, 317, 318, 320, 321, 323, 324, 326, 327,
                  329, 330, 332, 333, 335, 336, 338, 339, 341, 342, 344, 345,
                  347, 348, 350, 351, 353, 354, 356, 357, 359, 360, 362, 363,
                  365, 366, 368, 369, 371, 372, 374, 375, 377, 378, 380, 381,
                  383, 384, 386, 387, 389, 390, 392, 393, 395, 396, 398, 399,
                  401, 402, 404, 405, 407, 408, 410, 411, 413, 414, 416, 417,
                  419, 420, 422, 423, 425, 426, 428, 429, 431, 432, 434, 435,
                  437, 438, 440, 441, 443, 444, 446, 447, 449, 450, 452, 453,
                  455, 456, 458, 459, 461, 462, 464, 465, 467, 468, 470, 471,
                  473, 474, 476, 477, 479, 480, 482, 483, 485, 486, 488, 489,
                  491, 492, 494, 495, 497, 498, 500, 501, 503, 504, 506, 507,
                  509, 510, 512, 513, 515, 516, 518, 519, 521, 522, 524, 525,
                  527, 528, 530, 531

molecular fragmentation (1/2 indicates fragments):
111222222222222222222222222222222222222222222222222222222222222222222222
222222222222222222222222222222222222222222222222222222222222222222222222
222222222222222222222222222222222222222222222222222222222222222222222222
222222222222222222222222222222222222222222222222222222222222222222222222
222222222222222222222222222222222222222222222222222222222222222222222222
222222222222222222222222222222222222222222222222222222222222222222222222
222222222222222222222222222222222222222222222222222222222222222222222222
222222222222222222222222222
# atoms in fragment 1/2:     3   528
 fragment masses (1/2) :       18.02     3170.69
CMA distance (Bohr)    :   7.793
constraining FC (au)   :  0.0500

           -------------------------------------------------
          |                 G F N 2 - x T B                 |
           -------------------------------------------------

        Reference                      10.1021/acs.jctc.8b01176
      * Hamiltonian:
        H0-scaling (s, p, d)           1.850000    2.230000    2.230000
        zeta-weighting                 0.500000
      * Dispersion:
        s8                             2.700000
        a1                             0.520000
        a2                             5.000000
        s9                             5.000000
      * Repulsion:
        kExp                           1.500000    1.000000
        rExp                           1.000000
      * Coulomb:
        alpha                          2.000000
        third order                    shell-resolved
        anisotropic                    true
        a3                             3.000000
        a5                             4.000000
        cn-shift                       1.200000
        cn-exp                         4.000000
        max-rad                        5.000000


          ...................................................
          :                      SETUP                      :
          :.................................................:
          :  # basis functions                1062          :
          :  # atomic orbitals                1062          :
          :  # shells                          708          :
          :  # electrons                      1416          :
          :  max. iterations                   250          :
          :  Hamiltonian                  GFN2-xTB          :
          :  restarted?                      false          :
          :  GBSA solvation                  false          :
          :  PC potential                    false          :
          :  electronic temp.          300.0000000     K    :
          :  accuracy                    1.0000000          :
          :  -> integral cutoff          0.2500000E+02      :
          :  -> integral neglect         0.1000000E-07      :
          :  -> SCF convergence          0.1000000E-05 Eh   :
          :  -> wf. convergence          0.1000000E-03 e    :
          :  Broyden damping             0.4000000          :
          ...................................................

 iter      E             dE          RMSdq      gap      omega  full diag
   1   -906.5209452 -0.906521E+03  0.406E+00    8.63       0.0  T
   2   -906.5804264 -0.594811E-01  0.241E+00    7.75       1.0  T
   3   -906.6033043 -0.228779E-01  0.217E-01    6.30       1.0  T
   4   -906.6073880 -0.408368E-02  0.467E-02    6.71       1.0  T
   5   -906.6074615 -0.734761E-04  0.312E-02    6.64       1.0  T
   6   -906.6074910 -0.294878E-04  0.437E-03    6.67       1.0  T
   7   -906.6074928 -0.180849E-05  0.772E-04    6.67       5.6  T
   8   -906.6074928 -0.222028E-07  0.397E-04    6.67      10.9  T
   9   -906.6074928 -0.109857E-07  0.692E-05    6.67      62.7  T

   *** convergence criteria satisfied after 9 iterations ***

         #    Occupation            Energy/Eh            Energy/eV
      -------------------------------------------------------------
         1        2.0000           -0.7009093             -19.0727
       ...           ...                  ...                  ...
       702        2.0000           -0.3575333              -9.7290
       703        2.0000           -0.3545695              -9.6483
       704        2.0000           -0.3465552              -9.4302
       705        2.0000           -0.3438834              -9.3575
       706        2.0000           -0.3435228              -9.3477
       707        2.0000           -0.3283621              -8.9352
       708        2.0000           -0.3282166              -8.9312 (HOMO)
       709                         -0.0830574              -2.2601 (LUMO)
       710                         -0.0791170              -2.1529
       711                         -0.0581915              -1.5835
       712                         -0.0523680              -1.4250
       713                         -0.0401000              -1.0912
       ...                                ...                  ...
      1062                          0.4753357              12.9345
      -------------------------------------------------------------
                  HL-Gap            0.2451592 Eh            6.6711 eV
             Fermi-level           -0.2056370 Eh           -5.5957 eV

 SCC (total)                   0 d,  0 h,  0 min,  8.474 sec
 SCC setup                      ...        0 min,  0.032 sec (  0.381%)
 Dispersion                     ...        0 min,  0.074 sec (  0.877%)
 classical contributions        ...        0 min,  0.016 sec (  0.185%)
 integral evaluation            ...        0 min,  0.593 sec (  6.997%)
 iterations                     ...        0 min,  2.950 sec ( 34.807%)
 molecular gradient             ...        0 min,  4.781 sec ( 56.417%)
 printout                       ...        0 min,  0.028 sec (  0.335%)

         :::::::::::::::::::::::::::::::::::::::::::::::::::::
         ::                     SUMMARY                     ::
         :::::::::::::::::::::::::::::::::::::::::::::::::::::
         :: total energy            -901.157633886930 Eh    ::
         :: gradient norm              0.099925037161 Eh/a0 ::
         :: HOMO-LUMO gap              6.671122084130 eV    ::
         ::.................................................::
         :: SCC energy              -906.607492809524 Eh    ::
         :: -> isotropic ES            5.111693887799 Eh    ::
         :: -> anisotropic ES         -1.098570910494 Eh    ::
         :: -> anisotropic XC         -0.093834666781 Eh    ::
         :: -> dispersion             -0.526751923965 Eh    ::
         :: repulsion energy           5.358955827593 Eh    ::
         :: add. restraining           0.000000000000 Eh    ::
         :: total charge              -0.000000000000 e     ::
         :::::::::::::::::::::::::::::::::::::::::::::::::::::

      ----------------------------------------------------------- 
     |                       L-ANC optimizer                     |
      ----------------------------------------------------------- 
          low memory version by Sebastian Ehlert

          ...................................................
          :                      SETUP                      :
          :.................................................:
          :   energy convergence        0.1000000E-05 Eh    :
          :   grad. convergence         0.8000000E-03 Eh/a0 :
          :   optimization log               true           :
          :   writing optlog all                1     steps :
          :   Hessian reset                    20     steps :
          :   maximium step len.        1.0000000     a0    :
          :   LBFGS images                     20           :
          ...................................................
 * calculating model hessian...
Using Lindh-Hessian (1995)
 Shifting diagonal of input Hessian by   1.035448878770694E-002
 Lowest  eigenvalues of input Hessian
    0.010000    0.010354   -0.000000   -0.000000   -0.000000   -0.000000
   -0.000000   -0.000000   -0.000000   -0.000000   -0.000000   -0.000000
   -0.000000   -0.000000   -0.000000   -0.000000   -0.000000   -0.000000
 Highest eigenvalues
    0.298832    0.315489    1.218318    1.239304    1.390175    1.443330
 

........................................................................
.............................. CYCLE    1 ..............................
........................................................................
   1   -906.6073597 -0.906607E+03  0.146E-02    6.68       0.0  T
   2   -906.6073620 -0.233589E-05  0.890E-03    6.68       1.0  T
   3   -906.6073627 -0.743821E-06  0.976E-04    6.67       4.4  T
   4   -906.6073628 -0.770414E-07  0.239E-04    6.67      18.2  T
     SCC iter.                  ...        0 min,  1.147 sec
     gradient                   ...        0 min,  4.805 sec
 * total energy  :  -901.1587302 Eh     change       -0.1096268E-02 Eh
   gradient norm :     0.0042949 Eh/a0  converged?    E=F G=F D=F
   step length   :     0.3062240 a0

........................................................................
.............................. CYCLE    2 ..............................
........................................................................
   1   -906.6014488 -0.906601E+03  0.414E-02    6.66       0.0  T
   2   -906.6014764 -0.276018E-04  0.250E-02    6.66       1.0  T
   3   -906.6014827 -0.634876E-05  0.363E-03    6.64       1.2  T
   4   -906.6014837 -0.922503E-06  0.712E-04    6.65       6.1  T
   5   -906.6014837 -0.111077E-07  0.136E-04    6.65      31.9  T
     SCC iter.                  ...        0 min,  1.415 sec
     gradient                   ...        0 min,  4.819 sec
 * total energy  :  -901.1606181 Eh     change       -0.1887937E-02 Eh
   gradient norm :     0.0348163 Eh/a0  converged?    E=F G=F D=F
   step length   :     2.5122758 a0

........................................................................
.............................. CYCLE    3 ..............................
........................................................................
   1   -906.6063877 -0.906606E+03  0.303E-02    6.67       0.0  T
   2   -906.6064132 -0.255480E-04  0.178E-02    6.68       1.0  T
   3   -906.6064179 -0.467304E-05  0.358E-03    6.66       1.2  T
   4   -906.6064186 -0.692826E-06  0.583E-04    6.67       7.4  T
   5   -906.6064186 -0.588773E-08  0.111E-04    6.67      39.0  T
     SCC iter.                  ...        0 min,  1.398 sec
     gradient                   ...        0 min,  4.838 sec
 * total energy  :  -901.1621881 Eh     change       -0.1569976E-02 Eh
   gradient norm :     0.0198200 Eh/a0  converged?    E=F G=F D=F
   step length   :     1.1292668 a0

........................................................................
.............................. CYCLE    4 ..............................
........................................................................
   1   -906.6150071 -0.906615E+03  0.340E-02    6.63       0.0  T
   2   -906.6150194 -0.122250E-04  0.207E-02    6.64       1.0  T
   3   -906.6150243 -0.497230E-05  0.229E-03    6.64       1.9  T
   4   -906.6150246 -0.285432E-06  0.644E-04    6.64       6.7  T
   5   -906.6150246 -0.680495E-08  0.830E-05    6.64      52.3  T
     SCC iter.                  ...        0 min,  1.386 sec
     gradient                   ...        0 min,  4.866 sec
 * total energy  :  -901.1631545 Eh     change       -0.9663883E-03 Eh
   gradient norm :     0.0252987 Eh/a0  converged?    E=F G=F D=F
   step length   :     0.8667256 a0

........................................................................
.............................. CYCLE    5 ..............................
........................................................................
   1   -906.6147949 -0.906615E+03  0.269E-02    6.66       0.0  T
   2   -906.6148091 -0.141904E-04  0.164E-02    6.67       1.0  T
   3   -906.6148132 -0.405938E-05  0.252E-03    6.67       1.7  T
   4   -906.6148136 -0.429256E-06  0.570E-04    6.67       7.6  T
   5   -906.6148136 -0.659259E-08  0.898E-05    6.67      48.3  T
     SCC iter.                  ...        0 min,  1.371 sec
     gradient                   ...        0 min,  4.861 sec
 * total energy  :  -901.1649918 Eh     change       -0.1837384E-02 Eh
   gradient norm :     0.0270036 Eh/a0  converged?    E=F G=F D=F
   step length   :     0.5364707 a0

........................................................................
.............................. CYCLE    6 ..............................
........................................................................
   1   -906.6066628 -0.906607E+03  0.341E-02    6.68       0.0  T
   2   -906.6067046 -0.418468E-04  0.199E-02    6.69       1.0  T
   3   -906.6067125 -0.786954E-05  0.451E-03    6.69       1.0  T
   4   -906.6067135 -0.105025E-05  0.830E-04    6.69       5.2  T
   5   -906.6067135 -0.154344E-07  0.153E-04    6.69      28.4  T
   6   -906.6067135 -0.802174E-09  0.514E-05    6.69      84.5  T
     SCC iter.                  ...        0 min,  1.631 sec
     gradient                   ...        0 min,  4.902 sec
 * total energy  :  -901.1662418 Eh     change       -0.1249977E-02 Eh
   gradient norm :     0.0338224 Eh/a0  converged?    E=F G=F D=F
   step length   :     1.5767606 a0

........................................................................
.............................. CYCLE    7 ..............................
........................................................................
   1   -906.6148588 -0.906615E+03  0.246E-02    6.70       0.0  T
   2   -906.6148666 -0.786862E-05  0.146E-02    6.70       1.0  T
   3   -906.6148684 -0.176868E-05  0.199E-03    6.70       2.2  T
   4   -906.6148687 -0.265833E-06  0.468E-04    6.70       9.3  T
   5   -906.6148687 -0.344369E-08  0.629E-05    6.70      69.0  T
     SCC iter.                  ...        0 min,  1.349 sec
     gradient                   ...        0 min,  4.890 sec
 * total energy  :  -901.1667005 Eh     change       -0.4586665E-03 Eh
   gradient norm :     0.0247304 Eh/a0  converged?    E=F G=F D=F
   step length   :     0.4085906 a0

........................................................................
.............................. CYCLE    8 ..............................
........................................................................
   1   -906.6146007 -0.906615E+03  0.232E-02    6.70       0.0  T
   2   -906.6146079 -0.717737E-05  0.140E-02    6.70       1.0  T
   3   -906.6146096 -0.164750E-05  0.176E-03    6.70       2.5  T
   4   -906.6146098 -0.238881E-06  0.390E-04    6.70      11.1  T
   5   -906.6146098 -0.179000E-08  0.517E-05    6.70      83.9  T
     SCC iter.                  ...        0 min,  1.345 sec
     gradient                   ...        0 min,  4.905 sec
 * total energy  :  -901.1677318 Eh     change       -0.1031289E-02 Eh
   gradient norm :     0.0122320 Eh/a0  converged?    E=F G=F D=F
   step length   :     0.4385524 a0

........................................................................
.............................. CYCLE    9 ..............................
........................................................................
   1   -906.6071262 -0.906607E+03  0.383E-02    6.68       0.0  T
   2   -906.6071555 -0.292485E-04  0.227E-02    6.69       1.0  T
   3   -906.6071598 -0.432493E-05  0.356E-03    6.70       1.2  T
   4   -906.6071607 -0.907898E-06  0.576E-04    6.70       7.5  T
   5   -906.6071607 -0.691193E-08  0.122E-04    6.70      35.5  T
     SCC iter.                  ...        0 min,  1.366 sec
     gradient                   ...        0 min,  4.931 sec
 * total energy  :  -901.1679209 Eh     change       -0.1891486E-03 Eh
   gradient norm :     0.0407161 Eh/a0  converged?    E=F G=F D=F
   step length   :     0.9009344 a0

........................................................................
.............................. CYCLE   10 ..............................
........................................................................
   1   -906.6164206 -0.906616E+03  0.214E-02    6.68       0.0  T
   2   -906.6164277 -0.711633E-05  0.126E-02    6.68       1.0  T
   3   -906.6164295 -0.181813E-05  0.186E-03    6.68       2.3  T
   4   -906.6164297 -0.214623E-06  0.487E-04    6.68       8.9  T
   5   -906.6164297 -0.345460E-08  0.524E-05    6.68      82.7  T
     SCC iter.                  ...        0 min,  1.330 sec
     gradient                   ...        0 min,  4.908 sec
 * total energy  :  -901.1683262 Eh     change       -0.4052415E-03 Eh
   gradient norm :     0.0164848 Eh/a0  converged?    E=F G=F D=F
   step length   :     0.2166642 a0

........................................................................
.............................. CYCLE   11 ..............................
........................................................................
   1   -906.6160407 -0.906616E+03  0.187E-02    6.71       0.0  T
   2   -906.6160529 -0.122087E-04  0.112E-02    6.70       1.0  T
   3   -906.6160553 -0.237441E-05  0.236E-03    6.70       1.8  T
   4   -906.6160556 -0.317052E-06  0.455E-04    6.70       9.5  T
   5   -906.6160556 -0.469936E-08  0.816E-05    6.70      53.2  T
     SCC iter.                  ...        0 min,  1.324 sec
     gradient                   ...        0 min,  4.811 sec
 * total energy  :  -901.1686418 Eh     change       -0.3156171E-03 Eh
   gradient norm :     0.0184959 Eh/a0  converged?    E=F G=F D=F
   step length   :     0.6286541 a0

........................................................................
.............................. CYCLE   12 ..............................
........................................................................
   1   -906.6138161 -0.906614E+03  0.181E-02    6.69       0.0  T
   2   -906.6138216 -0.547805E-05  0.109E-02    6.69       1.0  T
   3   -906.6138231 -0.146568E-05  0.155E-03    6.69       2.8  T
   4   -906.6138232 -0.178650E-06  0.423E-04    6.69      10.2  T
   5   -906.6138232 -0.412524E-08  0.625E-05    6.69      69.5  T
     SCC iter.                  ...        0 min,  1.323 sec
     gradient                   ...        0 min,  4.902 sec
 * total energy  :  -901.1692890 Eh     change       -0.6471828E-03 Eh
   gradient norm :     0.0161898 Eh/a0  converged?    E=F G=F D=F
   step length   :     0.4209000 a0

........................................................................
.............................. CYCLE   13 ..............................
........................................................................
   1   -906.6136322 -0.906614E+03  0.140E-02    6.69       0.0  T
   2   -906.6136465 -0.143221E-04  0.803E-03    6.69       1.0  T
   3   -906.6136485 -0.200096E-05  0.262E-03    6.69       1.7  T
   4   -906.6136487 -0.176116E-06  0.295E-04    6.69      14.7  T
   5   -906.6136487 -0.291720E-08  0.662E-05    6.69      65.5  T
     SCC iter.                  ...        0 min,  1.318 sec
     gradient                   ...        0 min,  4.846 sec
 * total energy  :  -901.1694456 Eh     change       -0.1566158E-03 Eh
   gradient norm :     0.0155796 Eh/a0  converged?    E=F G=F D=F
   step length   :     0.4864405 a0

........................................................................
.............................. CYCLE   14 ..............................
........................................................................
   1   -906.6163380 -0.906616E+03  0.841E-03    6.70       0.0  T
   2   -906.6163419 -0.391039E-05  0.486E-03    6.70       1.0  T
   3   -906.6163426 -0.659499E-06  0.137E-03    6.69       3.2  T
   4   -906.6163427 -0.793461E-07  0.261E-04    6.69      16.7  T
   5   -906.6163427 -0.183718E-08  0.432E-05    6.69     100.4  T
     SCC iter.                  ...        0 min,  1.317 sec
     gradient                   ...        0 min,  4.861 sec
 * total energy  :  -901.1698268 Eh     change       -0.3812266E-03 Eh
   gradient norm :     0.0140075 Eh/a0  converged?    E=F G=F D=F
   step length   :     0.2078646 a0

........................................................................
.............................. CYCLE   15 ..............................
........................................................................
   1   -906.6154351 -0.906615E+03  0.202E-02    6.70       0.0  T
   2   -906.6154435 -0.832821E-05  0.122E-02    6.70       1.0  T
   3   -906.6154449 -0.148157E-05  0.193E-03    6.70       2.3  T
   4   -906.6154452 -0.276678E-06  0.388E-04    6.70      11.2  T
   5   -906.6154452 -0.262150E-08  0.590E-05    6.70      73.6  T
     SCC iter.                  ...        0 min,  1.332 sec
     gradient                   ...        0 min,  4.837 sec
 * total energy  :  -901.1702076 Eh     change       -0.3807975E-03 Eh
   gradient norm :     0.0177973 Eh/a0  converged?    E=F G=F D=F
   step length   :     0.3528722 a0

........................................................................
.............................. CYCLE   16 ..............................
........................................................................
   1   -906.6154157 -0.906615E+03  0.144E-02    6.70       0.0  T
   2   -906.6154202 -0.449849E-05  0.863E-03    6.70       1.0  T
   3   -906.6154212 -0.102032E-05  0.153E-03    6.71       2.8  T
   4   -906.6154213 -0.134091E-06  0.299E-04    6.71      14.5  T
   5   -906.6154213 -0.970658E-09  0.353E-05    6.71     123.0  T
     SCC iter.                  ...        0 min,  1.241 sec
     gradient                   ...        0 min,  4.760 sec
 * total energy  :  -901.1706087 Eh     change       -0.4011214E-03 Eh
   gradient norm :     0.0150433 Eh/a0  converged?    E=F G=F D=F
   step length   :     0.1783167 a0

........................................................................
.............................. CYCLE   17 ..............................
........................................................................
   1   -906.6180808 -0.906618E+03  0.130E-02    6.70       0.0  T
   2   -906.6180848 -0.399791E-05  0.788E-03    6.71       1.0  T
   3   -906.6180859 -0.104309E-05  0.133E-03    6.71       3.3  T
   4   -906.6180860 -0.125144E-06  0.338E-04    6.71      12.8  T
   5   -906.6180860 -0.215812E-08  0.491E-05    6.71      88.5  T
     SCC iter.                  ...        0 min,  1.236 sec
     gradient                   ...        0 min,  4.778 sec
 * total energy  :  -901.1708718 Eh     change       -0.2630325E-03 Eh
   gradient norm :     0.0123025 Eh/a0  converged?    E=F G=F D=F
   step length   :     0.3243243 a0

........................................................................
.............................. CYCLE   18 ..............................
........................................................................
   1   -906.6163027 -0.906616E+03  0.191E-02    6.71       0.0  T
   2   -906.6163069 -0.417487E-05  0.115E-02    6.71       1.0  T
   3   -906.6163082 -0.127641E-05  0.137E-03    6.71       3.2  T
   4   -906.6163083 -0.134409E-06  0.395E-04    6.71      11.0  T
   5   -906.6163083 -0.305840E-08  0.517E-05    6.71      84.0  T
     SCC iter.                  ...        0 min,  1.334 sec
     gradient                   ...        0 min,  4.816 sec
 * total energy  :  -901.1709166 Eh     change       -0.4487225E-04 Eh
   gradient norm :     0.0173075 Eh/a0  converged?    E=F G=F D=F
   step length   :     0.3484883 a0

........................................................................
.............................. CYCLE   19 ..............................
........................................................................
   1   -906.6192786 -0.906619E+03  0.105E-02    6.72       0.0  T
   2   -906.6192838 -0.517066E-05  0.610E-03    6.71       1.0  T
   3   -906.6192847 -0.971327E-06  0.157E-03    6.71       2.8  T
   4   -906.6192849 -0.115910E-06  0.323E-04    6.71      13.4  T
   5   -906.6192849 -0.252749E-08  0.507E-05    6.71      85.6  T
     SCC iter.                  ...        0 min,  1.320 sec
     gradient                   ...        0 min,  4.802 sec
 * total energy  :  -901.1711593 Eh     change       -0.2426959E-03 Eh
   gradient norm :     0.0107819 Eh/a0  converged?    E=F G=F D=F
   step length   :     0.2905517 a0

........................................................................
.............................. CYCLE   20 ..............................
........................................................................
   1   -906.6123611 -0.906612E+03  0.194E-02    6.71       0.0  T
   2   -906.6123770 -0.159443E-04  0.109E-02    6.71       1.0  T
   3   -906.6123796 -0.262595E-05  0.289E-03    6.71       1.5  T
   4   -906.6123799 -0.322063E-06  0.487E-04    6.71       8.9  T
   5   -906.6123800 -0.261900E-08  0.612E-05    6.71      70.9  T
     SCC iter.                  ...        0 min,  1.302 sec
     gradient                   ...        0 min,  4.741 sec
 * total energy  :  -901.1706473 Eh     change        0.5120259E-03 Eh
   gradient norm :     0.0285087 Eh/a0  converged?    E=F G=F D=F
   step length   :     0.1784922 a0
 * RMSD in coord.:     0.2301677 a0     energy gain  -0.1301341E-01 Eh
 * calculating model hessian...
Using Lindh-Hessian (1995)
 Shifting diagonal of input Hessian by   1.048786698607728E-002
 Lowest  eigenvalues of input Hessian
    0.010000    0.010488    0.010488   -0.000000   -0.000000   -0.000000
   -0.000000   -0.000000   -0.000000   -0.000000   -0.000000   -0.000000
   -0.000000   -0.000000   -0.000000   -0.000000   -0.000000   -0.000000
 Highest eigenvalues
    0.276515    0.289752    1.176313    1.188136    1.352375    1.384175
 

........................................................................
.............................. CYCLE   21 ..............................
........................................................................
   1   -906.6169478 -0.906617E+03  0.118E-02    6.71       0.0  T
   2   -906.6169514 -0.364971E-05  0.697E-03    6.71       1.0  T
   3   -906.6169522 -0.809903E-06  0.139E-03    6.71       3.1  T
   4   -906.6169523 -0.102672E-06  0.287E-04    6.71      15.1  T
   5   -906.6169523 -0.873797E-09  0.321E-05    6.71     135.0  T
     SCC iter.                  ...        0 min,  1.309 sec
     gradient                   ...        0 min,  4.815 sec
 * total energy  :  -901.1715351 Eh     change       -0.8878367E-03 Eh
   gradient norm :     0.0112713 Eh/a0  converged?    E=F G=F D=F
   step length   :     0.1742537 a0

........................................................................
.............................. CYCLE   22 ..............................
........................................................................
   1   -906.6208240 -0.906621E+03  0.111E-02    6.72       0.0  T
   2   -906.6208276 -0.360377E-05  0.647E-03    6.72       1.0  T
   3   -906.6208282 -0.629709E-06  0.135E-03    6.72       3.2  T
   4   -906.6208283 -0.911838E-07  0.246E-04    6.72      17.7  T
   5   -906.6208283 -0.771365E-09  0.343E-05    6.72     126.7  T
     SCC iter.                  ...        0 min,  1.315 sec
     gradient                   ...        0 min,  4.828 sec
 * total energy  :  -901.1720406 Eh     change       -0.5054802E-03 Eh
   gradient norm :     0.0071142 Eh/a0  converged?    E=F G=F D=F
   step length   :     0.2985580 a0

........................................................................
.............................. CYCLE   23 ..............................
........................................................................
   1   -906.6206558 -0.906621E+03  0.150E-02    6.72       0.0  T
   2   -906.6206576 -0.176016E-05  0.931E-03    6.72       1.0  T
   3   -906.6206582 -0.596568E-06  0.793E-04    6.72       5.5  T
   4   -906.6206582 -0.538212E-07  0.201E-04    6.72      21.5  T
     SCC iter.                  ...        0 min,  1.048 sec
     gradient                   ...        0 min,  4.826 sec
 * total energy  :  -901.1723146 Eh     change       -0.2739974E-03 Eh
   gradient norm :     0.0125990 Eh/a0  converged?    E=F G=F D=F
   step length   :     0.3083581 a0

........................................................................
.............................. CYCLE   24 ..............................
........................................................................
   1   -906.6208618 -0.906621E+03  0.112E-02    6.72       0.0  T
   2   -906.6208627 -0.894277E-06  0.679E-03    6.72       1.0  T
   3   -906.6208629 -0.210895E-06  0.598E-04    6.72       7.3  T
   4   -906.6208630 -0.322790E-07  0.142E-04    6.72      30.5  T
     SCC iter.                  ...        0 min,  1.059 sec
     gradient                   ...        0 min,  4.811 sec
 * total energy  :  -901.1726157 Eh     change       -0.3010968E-03 Eh
   gradient norm :     0.0090888 Eh/a0  converged?    E=F G=F D=F
   step length   :     0.4361889 a0

........................................................................
.............................. CYCLE   25 ..............................
........................................................................
   1   -906.6205380 -0.906621E+03  0.911E-03    6.72       0.0  T
   2   -906.6205383 -0.297103E-06  0.549E-03    6.72       1.0  T
   3   -906.6205384 -0.752838E-07  0.337E-04    6.72      12.9  T
   4   -906.6205384 -0.107415E-07  0.910E-05    6.72      47.7  T
     SCC iter.                  ...        0 min,  1.060 sec
     gradient                   ...        0 min,  4.773 sec
 * total energy  :  -901.1728156 Eh     change       -0.1999221E-03 Eh
   gradient norm :     0.0040959 Eh/a0  converged?    E=F G=F D=F
   step length   :     0.3291721 a0

........................................................................
.............................. CYCLE   26 ..............................
........................................................................
   1   -906.6177875 -0.906618E+03  0.175E-02    6.72       0.0  T
   2   -906.6177909 -0.341163E-05  0.106E-02    6.72       1.0  T
   3   -906.6177920 -0.105597E-05  0.129E-03    6.72       3.4  T
   4   -906.6177921 -0.108865E-06  0.330E-04    6.72      13.2  T
   5   -906.6177921 -0.241437E-08  0.503E-05    6.72      86.2  T
     SCC iter.                  ...        0 min,  1.329 sec
     gradient                   ...        0 min,  4.788 sec
 * total energy  :  -901.1728083 Eh     change        0.7338790E-05 Eh
   gradient norm :     0.0170979 Eh/a0  converged?    E=F G=F D=F
   step length   :     0.4200024 a0

........................................................................
.............................. CYCLE   27 ..............................
........................................................................
   1   -906.6203538 -0.906620E+03  0.109E-02    6.72       0.0  T
   2   -906.6203550 -0.125745E-05  0.659E-03    6.72       1.0  T
   3   -906.6203554 -0.376415E-06  0.768E-04    6.72       5.7  T
   4   -906.6203554 -0.408457E-07  0.197E-04    6.72      22.0  T
     SCC iter.                  ...        0 min,  1.061 sec
     gradient                   ...        0 min,  4.789 sec
 * total energy  :  -901.1729982 Eh     change       -0.1899096E-03 Eh
   gradient norm :     0.0072691 Eh/a0  converged?    E=F G=F D=F
   step length   :     0.0879346 a0

........................................................................
.............................. CYCLE   28 ..............................
........................................................................
   1   -906.6203530 -0.906620E+03  0.380E-03    6.72       0.0  T
   2   -906.6203531 -0.866119E-07  0.230E-03    6.72       1.9  T
   3   -906.6203531 -0.398474E-07  0.203E-04    6.72      21.4  T
   4   -906.6203531 -0.226419E-08  0.655E-05    6.72      66.3  T
     SCC iter.                  ...        0 min,  1.039 sec
     gradient                   ...        0 min,  4.774 sec
 * total energy  :  -901.1730621 Eh     change       -0.6393543E-04 Eh
   gradient norm :     0.0043637 Eh/a0  converged?    E=F G=F D=F
   step length   :     0.0688553 a0

........................................................................
.............................. CYCLE   29 ..............................
........................................................................
   1   -906.6193046 -0.906619E+03  0.164E-02    6.72       0.0  T
   2   -906.6193056 -0.103630E-05  0.998E-03    6.72       1.0  T
   3   -906.6193061 -0.490967E-06  0.695E-04    6.72       6.2  T
   4   -906.6193061 -0.247481E-07  0.208E-04    6.72      20.9  T
     SCC iter.                  ...        0 min,  1.042 sec
     gradient                   ...        0 min,  4.743 sec
 * total energy  :  -901.1731541 Eh     change       -0.9193338E-04 Eh
   gradient norm :     0.0092834 Eh/a0  converged?    E=F G=F D=F
   step length   :     0.3246671 a0

........................................................................
.............................. CYCLE   30 ..............................
........................................................................
   1   -906.6214510 -0.906621E+03  0.516E-03    6.72       0.0  T
   2   -906.6214512 -0.200521E-06  0.306E-03    6.72       1.4  T
   3   -906.6214513 -0.863953E-07  0.308E-04    6.72      14.1  T
   4   -906.6214513 -0.527598E-08  0.110E-04    6.72      39.6  T
     SCC iter.                  ...        0 min,  1.045 sec
     gradient                   ...        0 min,  4.745 sec
 * total energy  :  -901.1731649 Eh     change       -0.1087609E-04 Eh
   gradient norm :     0.0096576 Eh/a0  converged?    E=F G=F D=F
   step length   :     0.1072461 a0

........................................................................
.............................. CYCLE   31 ..............................
........................................................................
   1   -906.6209483 -0.906621E+03  0.674E-03    6.72       0.0  T
   2   -906.6209487 -0.339252E-06  0.415E-03    6.72       1.0  T
   3   -906.6209488 -0.160175E-06  0.384E-04    6.72      11.3  T
   4   -906.6209488 -0.763737E-08  0.118E-04    6.72      36.7  T
     SCC iter.                  ...        0 min,  1.046 sec
     gradient                   ...        0 min,  4.751 sec
 * total energy  :  -901.1732278 Eh     change       -0.6289642E-04 Eh
   gradient norm :     0.0021863 Eh/a0  converged?    E=F G=F D=F
   step length   :     0.0581755 a0

........................................................................
.............................. CYCLE   32 ..............................
........................................................................
   1   -906.6201577 -0.906620E+03  0.569E-03    6.72       0.0  T
   2   -906.6201579 -0.168985E-06  0.344E-03    6.72       1.3  T
   3   -906.6201580 -0.632790E-07  0.280E-04    6.72      15.5  T
   4   -906.6201580 -0.517934E-08  0.868E-05    6.72      50.0  T
     SCC iter.                  ...        0 min,  1.043 sec
     gradient                   ...        0 min,  4.748 sec
 * total energy  :  -901.1732477 Eh     change       -0.1986231E-04 Eh
   gradient norm :     0.0038607 Eh/a0  converged?    E=F G=F D=F
   step length   :     0.1059514 a0

........................................................................
.............................. CYCLE   33 ..............................
........................................................................
   1   -906.6203186 -0.906620E+03  0.236E-03    6.72       0.0  T
   2   -906.6203187 -0.213790E-07  0.143E-03    6.72       3.0  T
   3   -906.6203187 -0.109673E-07  0.103E-04    6.72      42.3  T
   4   -906.6203187 -0.483737E-09  0.324E-05    6.72     134.1  T
     SCC iter.                  ...        0 min,  1.044 sec
     gradient                   ...        0 min,  4.748 sec
 * total energy  :  -901.1732639 Eh     change       -0.1614368E-04 Eh
   gradient norm :     0.0027887 Eh/a0  converged?    E=F G=F D=F
   step length   :     0.0302886 a0

........................................................................
.............................. CYCLE   34 ..............................
........................................................................
   1   -906.6204990 -0.906620E+03  0.620E-03    6.72       0.0  T
   2   -906.6204991 -0.855531E-07  0.375E-03    6.72       1.2  T
   3   -906.6204991 -0.245468E-07  0.185E-04    6.72      23.4  T
   4   -906.6204991 -0.293244E-08  0.486E-05    6.72      89.2  T
     SCC iter.                  ...        0 min,  1.045 sec
     gradient                   ...        0 min,  4.752 sec
 * total energy  :  -901.1732836 Eh     change       -0.1974813E-04 Eh
   gradient norm :     0.0017336 Eh/a0  converged?    E=F G=F D=F
   step length   :     0.0817837 a0

........................................................................
.............................. CYCLE   35 ..............................
........................................................................
   1   -906.6211122 -0.906621E+03  0.427E-03    6.72       0.0  T
   2   -906.6211123 -0.822458E-07  0.257E-03    6.72       1.7  T
   3   -906.6211123 -0.181749E-07  0.182E-04    6.72      23.9  T
   4   -906.6211123 -0.316209E-08  0.428E-05    6.72     101.4  T
     SCC iter.                  ...        0 min,  1.036 sec
     gradient                   ...        0 min,  4.759 sec
 * total energy  :  -901.1732941 Eh     change       -0.1048821E-04 Eh
   gradient norm :     0.0023096 Eh/a0  converged?    E=F G=F D=F
   step length   :     0.0593441 a0

........................................................................
.............................. CYCLE   36 ..............................
........................................................................
   1   -906.6208862 -0.906621E+03  0.319E-03    6.72       0.0  T
   2   -906.6208862 -0.190475E-07  0.193E-03    6.72       2.2  T
   3   -906.6208862 -0.748889E-08  0.862E-05    6.72      50.4  T
   4   -906.6208862 -0.467935E-09  0.261E-05    6.72     166.5  T
     SCC iter.                  ...        0 min,  1.044 sec
     gradient                   ...        0 min,  4.774 sec
 * total energy  :  -901.1732979 Eh     change       -0.3842860E-05 Eh
   gradient norm :     0.0007958 Eh/a0  converged?    E=F G=T D=F
   step length   :     0.0437313 a0

........................................................................
.............................. CYCLE   37 ..............................
........................................................................
   1   -906.6212259 -0.906621E+03  0.198E-03    6.72       0.0  T
   2   -906.6212259 -0.467405E-07  0.121E-03    6.72       3.6  T
   3   -906.6212260 -0.200841E-07  0.147E-04    6.72      29.6  T
   4   -906.6212260 -0.133173E-08  0.468E-05    6.72      92.7  T
     SCC iter.                  ...        0 min,  1.044 sec
     gradient                   ...        0 min,  4.748 sec
 * total energy  :  -901.1733026 Eh     change       -0.4707453E-05 Eh
   gradient norm :     0.0011425 Eh/a0  converged?    E=F G=F D=F
   step length   :     0.0696942 a0

........................................................................
.............................. CYCLE   38 ..............................
........................................................................
   1   -906.6211167 -0.906621E+03  0.233E-03    6.72       0.0  T
   2   -906.6211167 -0.697016E-07  0.141E-03    6.72       3.1  T
   3   -906.6211168 -0.160322E-07  0.178E-04    6.72      24.4  T
   4   -906.6211168 -0.256148E-08  0.386E-05    6.72     112.5  T
     SCC iter.                  ...        0 min,  1.036 sec
     gradient                   ...        0 min,  4.745 sec
 * total energy  :  -901.1733071 Eh     change       -0.4430231E-05 Eh
   gradient norm :     0.0016228 Eh/a0  converged?    E=F G=F D=F
   step length   :     0.0736113 a0

........................................................................
.............................. CYCLE   39 ..............................
........................................................................
   1   -906.6210178 -0.906621E+03  0.134E-03    6.72       0.0  T
   2   -906.6210178 -0.180339E-07  0.822E-04    6.72       5.3  T
   3   -906.6210178 -0.106285E-07  0.947E-05    6.72      45.8  T
     SCC iter.                  ...        0 min,  0.790 sec
     gradient                   ...        0 min,  4.727 sec
 * total energy  :  -901.1733100 Eh     change       -0.2924708E-05 Eh
   gradient norm :     0.0008348 Eh/a0  converged?    E=F G=F D=F
   step length   :     0.0509164 a0

........................................................................
.............................. CYCLE   40 ..............................
........................................................................
   1   -906.6208933 -0.906621E+03  0.154E-03    6.72       0.0  T
   2   -906.6208933 -0.252209E-07  0.945E-04    6.72       4.6  T
   3   -906.6208933 -0.105523E-07  0.106E-04    6.72      41.1  T
     SCC iter.                  ...        0 min,  0.783 sec
     gradient                   ...        0 min,  4.714 sec
 * total energy  :  -901.1733125 Eh     change       -0.2542698E-05 Eh
   gradient norm :     0.0007602 Eh/a0  converged?    E=F G=T D=F
   step length   :     0.0482574 a0

........................................................................
.............................. CYCLE   41 ..............................
........................................................................
   1   -906.6209706 -0.906621E+03  0.137E-03    6.72       0.0  T
   2   -906.6209706 -0.181542E-07  0.835E-04    6.72       5.2  T
   3   -906.6209706 -0.609623E-08  0.883E-05    6.72      49.2  T
     SCC iter.                  ...        0 min,  0.788 sec
     gradient                   ...        0 min,  4.715 sec
 * total energy  :  -901.1733137 Eh     change       -0.1214398E-05 Eh
   gradient norm :     0.0007381 Eh/a0  converged?    E=F G=T D=F
   step length   :     0.0236351 a0

........................................................................
.............................. CYCLE   42 ..............................
........................................................................
   1   -906.6210271 -0.906621E+03  0.124E-03    6.72       0.0  T
   2   -906.6210271 -0.124992E-07  0.763E-04    6.72       5.7  T
   3   -906.6210271 -0.444925E-08  0.697E-05    6.72      62.2  T
     SCC iter.                  ...        0 min,  0.779 sec
     gradient                   ...        0 min,  4.722 sec
 * total energy  :  -901.1733146 Eh     change       -0.8038127E-06 Eh
   gradient norm :     0.0008565 Eh/a0  converged?    E=T G=F D=F
   step length   :     0.0200216 a0
 * RMSD in coord.:     0.0943251 a0     energy gain  -0.2667254E-02 Eh
 * calculating model hessian...
Using Lindh-Hessian (1995)
 Shifting diagonal of input Hessian by   1.000007575521011E-002
 Lowest  eigenvalues of input Hessian
    0.010000   -0.000000   -0.000000   -0.000000   -0.000000   -0.000000
   -0.000000   -0.000000   -0.000000   -0.000000   -0.000000   -0.000000
   -0.000000   -0.000000   -0.000000   -0.000000   -0.000000   -0.000000
 Highest eigenvalues
    0.296906    0.313652    1.212331    1.222256    1.388208    1.443430
 

........................................................................
.............................. CYCLE   43 ..............................
........................................................................
   1   -906.6212026 -0.906621E+03  0.398E-03    6.72       0.0  T
   2   -906.6212027 -0.148267E-06  0.242E-03    6.72       1.8  T
   3   -906.6212028 -0.431685E-07  0.266E-04    6.72      16.3  T
   4   -906.6212028 -0.543253E-08  0.661E-05    6.72      65.7  T
     SCC iter.                  ...        0 min,  1.043 sec
     gradient                   ...        0 min,  4.715 sec
 * total energy  :  -901.1734269 Eh     change       -0.1123416E-03 Eh
   gradient norm :     0.0008246 Eh/a0  converged?    E=F G=F D=F
   step length   :     0.1270862 a0

........................................................................
.............................. CYCLE   44 ..............................
........................................................................
   1   -906.6187517 -0.906619E+03  0.252E-02    6.72       0.0  T
   2   -906.6187576 -0.591254E-05  0.156E-02    6.72       1.0  T
   3   -906.6187602 -0.258164E-05  0.162E-03    6.72       2.7  T
   4   -906.6187603 -0.168769E-06  0.498E-04    6.72       8.7  T
   5   -906.6187604 -0.599096E-08  0.683E-05    6.72      63.5  T
     SCC iter.                  ...        0 min,  1.291 sec
     gradient                   ...        0 min,  4.716 sec
 * total energy  :  -901.1734932 Eh     change       -0.6626110E-04 Eh
   gradient norm :     0.0157183 Eh/a0  converged?    E=F G=F D=F
   step length   :     0.6882645 a0

........................................................................
.............................. CYCLE   45 ..............................
........................................................................
   1   -906.6212854 -0.906621E+03  0.137E-02    6.72       0.0  T
   2   -906.6212869 -0.144024E-05  0.857E-03    6.72       1.0  T
   3   -906.6212878 -0.914865E-06  0.790E-04    6.72       5.5  T
   4   -906.6212878 -0.125822E-07  0.161E-04    6.72      27.0  T
     SCC iter.                  ...        0 min,  1.032 sec
     gradient                   ...        0 min,  4.716 sec
 * total energy  :  -901.1736334 Eh     change       -0.1402842E-03 Eh
   gradient norm :     0.0016094 Eh/a0  converged?    E=F G=F D=F
   step length   :     0.1571969 a0

........................................................................
.............................. CYCLE   46 ..............................
........................................................................
   1   -906.6213571 -0.906621E+03  0.879E-03    6.72       0.0  T
   2   -906.6213577 -0.522914E-06  0.546E-03    6.72       1.0  T
   3   -906.6213579 -0.237883E-06  0.404E-04    6.72      10.7  T
   4   -906.6213579 -0.105417E-07  0.105E-04    6.72      41.4  T
     SCC iter.                  ...        0 min,  1.048 sec
     gradient                   ...        0 min,  4.714 sec
 * total energy  :  -901.1736447 Eh     change       -0.1125980E-04 Eh
   gradient norm :     0.0028610 Eh/a0  converged?    E=F G=F D=F
   step length   :     0.1331770 a0

........................................................................
.............................. CYCLE   47 ..............................
........................................................................
   1   -906.6213435 -0.906621E+03  0.161E-03    6.72       0.0  T
   2   -906.6213435 -0.305713E-07  0.956E-04    6.72       4.5  T
   3   -906.6213435 -0.502075E-08  0.120E-04    6.72      36.2  T
     SCC iter.                  ...        0 min,  0.775 sec
     gradient                   ...        0 min,  4.711 sec
 * total energy  :  -901.1736552 Eh     change       -0.1054714E-04 Eh
   gradient norm :     0.0017944 Eh/a0  converged?    E=F G=F D=F
   step length   :     0.0454687 a0

........................................................................
.............................. CYCLE   48 ..............................
........................................................................
   1   -906.6212332 -0.906621E+03  0.436E-03    6.72       0.0  T
   2   -906.6212333 -0.151412E-06  0.262E-03    6.72       1.7  T
   3   -906.6212333 -0.300953E-07  0.265E-04    6.72      16.4  T
   4   -906.6212333 -0.617831E-08  0.537E-05    6.72      80.8  T
     SCC iter.                  ...        0 min,  1.017 sec
     gradient                   ...        0 min,  4.711 sec
 * total energy  :  -901.1736618 Eh     change       -0.6520812E-05 Eh
   gradient norm :     0.0012991 Eh/a0  converged?    E=F G=F D=F
   step length   :     0.0963650 a0

........................................................................
.............................. CYCLE   49 ..............................
........................................................................
   1   -906.6213662 -0.906621E+03  0.140E-03    6.72       0.0  T
   2   -906.6213662 -0.136685E-07  0.872E-04    6.72       5.0  T
   3   -906.6213662 -0.597993E-08  0.659E-05    6.72      65.9  T
     SCC iter.                  ...        0 min,  0.769 sec
     gradient                   ...        0 min,  4.710 sec
 * total energy  :  -901.1736656 Eh     change       -0.3840445E-05 Eh
   gradient norm :     0.0005589 Eh/a0  converged?    E=F G=T D=F
   step length   :     0.0224516 a0

........................................................................
.............................. CYCLE   50 ..............................
........................................................................
   1   -906.6214163 -0.906621E+03  0.258E-03    6.72       0.0  T
   2   -906.6214163 -0.278916E-07  0.159E-03    6.72       2.7  T
   3   -906.6214163 -0.149158E-07  0.938E-05    6.72      46.3  T
   4   -906.6214163 -0.355158E-09  0.279E-05    6.72     155.8  T
     SCC iter.                  ...        0 min,  1.037 sec
     gradient                   ...        0 min,  4.711 sec
 * total energy  :  -901.1736683 Eh     change       -0.2704473E-05 Eh
   gradient norm :     0.0005358 Eh/a0  converged?    E=F G=T D=F
   step length   :     0.0266278 a0

........................................................................
.............................. CYCLE   51 ..............................
........................................................................
   1   -906.6214889 -0.906621E+03  0.170E-03    6.72       0.0  T
   2   -906.6214889 -0.808905E-08  0.104E-03    6.72       4.2  T
   3   -906.6214889 -0.343528E-08  0.564E-05    6.72      76.9  T
   4   -906.6214889 -0.201567E-09  0.177E-05    6.72     245.0  T
     SCC iter.                  ...        0 min,  1.050 sec
     gradient                   ...        0 min,  4.711 sec
 * total energy  :  -901.1736693 Eh     change       -0.9710300E-06 Eh
   gradient norm :     0.0002668 Eh/a0  converged?    E=T G=T D=F
   step length   :     0.0192561 a0

   *** GEOMETRY OPTIMIZATION CONVERGED AFTER 51 CYCLES ***

------------------------------------------------------------------------
 total energy gain   :        -0.0160354 Eh      -10.0624 kcal/mol
 total RMSD          :         0.2004643 a0        0.1061 Å
 total power (kW/mol):        -0.8255084 (step)   -0.1241 (real)
------------------------------------------------------------------------

 L-ANCopt (total)              0 d,  0 h,  5 min, 39.375 sec
 setup                          ...        0 min,  0.017 sec (  0.005%)
 model hessian                  ...        0 min, 11.441 sec (  3.371%)
 ANC generation                 ...        0 min,  2.960 sec (  0.872%)
 coordinate transformation      ...        0 min,  0.003 sec (  0.001%)
 Rational function              ...        0 min,  0.000 sec (  0.000%)
 singlepoint calculation        ...        5 min, 24.685 sec ( 95.671%)
 optimization log               ...        0 min,  0.260 sec (  0.077%)
 hessian update                 ...        0 min,  0.001 sec (  0.000%)

================
 final structure:
================
$coord
       -2.85064997635139       -7.00544828646053       -1.49502189625572      o
       -3.82602616541265       -5.48379707435994       -1.71933306374550      h
       -4.13891848300405       -8.26204795969524       -1.02902768365039      h
        5.79271604678940       -4.83495214382647        3.82881112257241      o
        4.31751079042660       -5.88348199259606        3.94233686269980      h
        5.76895515540628       -3.61677768768734        5.20367856584258      h
        3.06419199117147        0.17774643792924        3.44501430654733      o
        4.82406297749835       -0.16396418357072        3.07717829144776      h
        2.96915074827756        1.29483428974247        4.90925198581245      h
        2.64936264986278       -7.63465180986401       -5.48317175174748      o
        2.42286478088626       -9.45415930287973       -5.54399760469802      h
        3.09115251683458       -7.12801084479769       -7.20169599389022      h
       -9.97160892363644       -2.06170962319983        9.57792174724006      o
       -9.28010162020714       -3.60812676190771       10.27815798528601      h
      -10.39557648660151       -0.89991825214755       10.95077857294568      h
        8.44638356776806      -10.30066380308494       -6.94365217602042      o
       10.25599066217895      -10.13771691720399       -7.13127428812654      h
        7.83398175991024       -8.59311383674152       -6.54996454099096      h
        0.86978262935321       -3.32801403881979        6.40077973002722      o
        2.16496707473973       -3.91010549168211        7.56849642008549      h
        1.65037186896691       -2.01407588867545        5.35454752345455      h
       11.77499898919359       -9.45893418020745       -0.05636765684332      o
       10.86688014692649       -8.91059457600040        1.46040247288903      h
       13.51318842120136       -9.73989937417695        0.49262715672060      h
      -11.05508112952014       -3.25836665389815       -0.57975789644624      o
      -12.88314432087104       -3.11904966645943       -0.74740533805197      h
      -10.54445821330696       -1.81653069426382        0.47339220358999      h
       -2.82821135775747        3.06451372702039        7.51091306531203      o
       -3.23732024520552        4.19537408901356        6.11657874111999      h
       -3.51693505423438        1.40096323451559        7.16239024330051      h
       -6.05954451670194       -3.01595176595375       -2.61037624425126      o
       -7.09755324576687       -1.50183958584920       -2.79422901392107      h
       -6.22803550496782       -3.90507816491525       -4.22880634969414      h
        4.46092589524431       10.40239491904370        2.58673014653477      o
        4.17504751829465       10.15333241341430        4.38866577052288      h
        6.13857413487475       11.11524510860392        2.34497040160343      h
        2.20790098538543        2.57915383627861        7.79247294847884      o
        0.53040148852031        3.24657426341628        7.42098237365726      h
        1.91100185635410        1.45583631031338        9.22689563739134      h
       -7.37981623473934        3.98031886912257        9.60442388226948      o
       -7.76239972651818        5.78210413460303        9.67389186658938      h
       -5.70832469596406        3.82934660344291        8.82634885350106      h
       -0.81329574801010        7.10744803792342       -5.97399143285327      o
       -1.71995482099450        5.69177357565042       -5.24146326809281      h
       -1.07403752855783        8.58711370968681       -4.93497739434134      h
       -4.37363980925427       11.66752203940029       -8.42196994425953      o
       -3.16286776137561       11.38067899459408       -9.75648041698261      h
       -3.36626021495188       11.80271999367525       -6.90187263148962      h
       -7.08053381810488        7.45294397722570       -4.26694820257634      o
       -7.50615638528984        9.20366517733686       -4.67598485637896      h
       -8.71443044738440        6.70108557687239       -3.80068922369056      h
       -0.58081316589186       -3.47150597948956       -6.34447016525079      o
       -0.22536925660713       -5.24622459268125       -6.08613835522674      h
       -1.14753705176194       -3.29441059976890       -8.09335521654310      h
        6.90806508502949        4.14191182630192        7.03481135830411      o
        7.77277143938562        4.78539664648226        8.53744253276632      h
        5.13046438466132        3.95344159932322        7.52230488192220      h
        7.55525498128929       -5.79907383397107       -1.01265407814251      o
        6.87565134563946       -4.78307940745720        0.33839346724947      h
        6.90566154411259       -7.47096934308362       -0.63692874198967      h
       -5.54064165838082       13.40324530498651       -1.54857878189734      o
       -4.96528730259830       14.00187249920624        0.07505249450344      h
       -4.01298376843267       12.89694821561140       -2.43915592499459      h
        2.09214320850021        2.89945760764679       -7.54407871513558      o
        0.46672107962064        2.93446212314580       -8.42578132457728      h
        2.81771941182911        1.21414981493137       -7.74281582980234      h
        9.67680703720866        5.56409730022607       11.05290746034829      o
       11.18418347870624        6.06886727880691       10.13265769488850      h
       10.13563102390323        4.13577725068141       12.08026485416293      h
       15.71249542357281       -0.91084372806582       -3.91392074481956      o
       17.02241186403071       -0.67300345048715       -5.21976995817622      h
       14.73030241947313       -2.37145920970439       -4.38385279140760      h
      -13.04508821012875        4.91509456263847        1.71624140709490      o
      -12.35698651714720        5.15767607530909        0.04082180269930      h
      -13.97208556184114        6.46271852328168        2.06358446166054      h
        2.20257407640554       -4.95838354731465       -1.22176305195143      o
        1.66023528883267       -5.93703177097763        0.24681974769672      h
        2.46903035553772       -6.10568468172528       -2.64320252423501      h
       -7.58408989380872       -6.49300542637933       10.08829513025283      o
       -7.04810891250301       -7.68051270570507       11.34070352248961      h
       -6.06374601754491       -6.08855572252046        9.07336976157362      h
       -5.94117309613155        6.57604048594269       -9.15659224943378      o
       -6.27006358171974        6.70467990234490       -7.34073706039271      h
       -5.37068288573308        8.24066095510140       -9.63409782404192      h
       -8.58746053994491       12.17892405921939       -5.46885034362914      o
       -7.54691822811113       12.32724005600914       -6.96748731114869      h
       -7.68525931992063       13.08936695881885       -4.15406957830678      h
       13.91201708233202        1.00673963863724        9.29556061555569      o
       12.87222829247128        0.76152287949486       10.79779832187359      h
       13.70763751866853        2.74823533405402        8.76304325681209      h
       10.47470859727118       -5.35187816668703      -10.14335947391180      o
        9.32501220233678       -5.17908960581528       -8.69428591508392      h
       11.69068751082951       -6.61694797259424       -9.54892023250815      h
      -13.99752018879894       -5.65487939029341      -10.41407425424806      o
      -14.75586313176414       -6.11337139411372       -8.81663457061421      h
      -14.37503940588574       -3.87588826247939      -10.63635838320040      h
       -3.73049413120979        3.41005357391404       -4.00676093639688      o
       -5.13620100530979        4.57124810370797       -4.01245437984181      h
       -4.16649220659977        2.05393311800302       -5.19165054730640      h
        0.56816133179297      -10.99906243458142       -0.75787500638026      o
       -0.34521772572046       -9.41838267616216       -0.80776722642902      h
        2.25036513264136      -10.63011793609434       -0.05094305243272      h
        0.74226325333332        0.20102458881496       12.01112085069710      o
        0.02706140320227        1.85385824250907       12.43555544714744      h
       -0.71529649289497       -0.90105551947125       11.73798203838225      h
        2.09423138628798      -12.79486083301617       -5.19434567804210      o
        3.71998709561488      -13.56722249534987       -5.00065201951430      h
        1.49377881599967      -12.37098393419176       -3.48603705212307      h
       11.19075411762976        2.51556315060064        4.41397660757499      o
       10.23831535466770        3.68426758133249        5.42131133507183      h
        9.97864465528894        1.21006425710292        3.86814103765850      h
      -11.82859928655702       -3.36853880056640        4.99333087215371      o
      -11.28756543677157       -2.91570088858502        6.69362740114554      h
      -12.93537956827418       -2.00664480197685        4.43711616425270      h
        8.07778600936848       -0.55832343042234        2.19006877525472      o
        7.93870839442357        0.49255902058389        0.67441034106377      h
        9.09456550022722       -2.01152824462390        1.77743663965816      h
        2.36470642331476       11.96491021761242       -7.88635177785183      o
        4.01074808601574       11.98186188499303       -8.72149997733711      h
        1.27643072399794       11.01005468281072       -9.05375801427654      h
        5.25602775768565      -10.16520673280521        0.68730980429268      o
        6.24067083702700      -11.20115827614724       -0.52060373569292      h
        5.56266327619475      -10.95312965129803        2.31382893059413      h
        5.69618458132542        0.99335804504405       11.95115283467982      o
        4.06306042572838        0.40766633263428       12.53640338607714      h
        5.95610311939666        0.13123553552049       10.32183414949008      h
        9.30927052023838       -4.98632071324978       10.86522411469796      o
       10.26601344869643       -4.39808334544312        9.40112109787796      h
        9.59769675835756       -6.77717393278805       10.94062569261633      h
       -3.52671146867982       -2.44173449367834       11.56079107746019      o
       -4.14859320372159       -2.20642259627661        9.83309626248618      h
       -4.39451772889984       -1.15081283406159       12.56597489015548      h
        1.56790964619462        2.74927574382399       -2.57423884522304      o
        1.77525162097895        3.02310130711224       -4.40618160784236      h
        1.44251255373208        4.41735015597588       -1.81620400355203      h
       -1.12682237271572       11.95954130379343       -4.05020992171341      o
       -0.29023839668854       12.43081297654617       -2.44483807787757      h
        0.11594053850814       12.40720624238443       -5.32409627483853      h
       -6.79600062726548      -10.08500976969646       -1.54304131304935      o
       -7.64402592017192       -9.99123681070384       -3.18493515234694      h
       -8.03887872337219       -9.50218887031147       -0.31402975422762      h
       -9.60872447882886        0.61719163499070        2.22450269008359      o
       -9.23715161966321        2.28221807358647        1.57155779747766      h
      -10.15147764021381        0.92288951833855        3.95624874488563      h
       19.17861303676292        0.32761497648626       -7.30635828227115      o
       19.91555406273456        1.67086818073837       -6.28746876767115      h
       18.15026121246921        1.19997565410205       -8.55389279444221      h
       -2.20638022917391        3.07353912448416      -10.13789107755639      o
       -3.33292516802792        4.51703870230943      -10.05638565289191      h
       -3.14278519621548        1.68733942232897       -9.35132955637425      h
      -12.84242429390749       11.76618730745127       -2.44760380444056      o
      -13.26190430991067       13.52035386633423       -2.29133116075298      h
      -11.64832679129207       11.65256058319973       -3.83596941751823      h
       -0.93419482387048        4.94600601167634       12.81045443183947      o
        0.76198149673174        5.62162366255402       12.81402056354946      h
       -1.82110662200997        5.95847313941430       11.54461754025615      h
      -18.04313377428848        4.51560412554535       -5.93813804357412      o
      -17.90259612175482        4.74694535267831       -4.12219171870777      h
      -16.61057117912296        5.36874234164882       -6.69560164318563      h
       -5.63286964371825       -1.17318639089045        7.04633337097077      o
       -7.29493654489191       -1.11338376539343        7.84513241555339      h
       -5.76273388637359       -2.46011535567547        5.74094291145856      h
       11.30107738247035       -2.53969253345971        6.83034711545487      o
       11.78570168812366       -2.79425127149528        5.06266782437546      h
       12.42748109150299       -1.25528438769259        7.54284948071631      h
       17.45913282649390        3.32109894633441       -0.26044890022985      o
       19.03754299250178        3.02842379224428       -1.12629409491151      h
       17.53329918107750        2.49680114049504        1.39098286651191      h
      -17.84426163627709       -3.87522252616622        7.19555568712734      o
      -16.79167180350662       -5.36935859153993        7.06044740244060      h
      -18.78213050802105       -3.82520868639860        5.61571328214882      h
       -2.05165479768198       -2.95892819581659      -11.19041245612106      o
       -3.76106088835223       -2.34909014439181      -11.52007303488685      h
       -0.92919973394137       -1.91251688195726      -12.21297087652627      h
       -4.28465873950199       -8.65904954267830        2.98462306561823      o
       -5.27602971072611       -7.15685560845180        3.33402005332049      h
       -4.74534833110201       -9.89232946499487        4.26867335512844      h
        4.35048017256215        8.63921207517685       -4.65131902286534      o
        4.70695642080244        7.04556503695039       -5.50129060005418      h
        3.55215058900789        9.77334340991831       -5.89336554635078      h
       -9.62224047041395        6.64746145119465        5.14305523351269      o
      -10.59483067941533        5.74800103182417        3.87787424424902      h
      -10.78154396335737        7.82894134188876        5.93736656711636      h
      -15.16425912462213        0.25426052455061        3.22175726295944      o
      -14.30883021504130        1.79967464378748        2.70572881154743      h
      -16.83929582536883        0.73681931211433        3.82477892852164      h
       -8.90510369776311        9.98556541641130        0.64312822739252      o
      -10.49040940251164       10.41156265539398       -0.16096010304983      h
       -7.61878052280260       11.04714314933982       -0.13220181967050      h
      -17.69392848285680        3.86352236302759       -0.80349675360952      o
      -18.90991534310922        2.49292475867632       -0.80330906188107      h
      -17.97031173032358        4.81751079761302        0.75666563015786      h
       12.85621863741104        1.31240402374988       -0.28837559309614      o
       14.50699551753175        1.99625774584120       -0.71769642557852      h
       12.31945324899488        2.18667666143366        1.22878457191949      h
        8.02743964093211        3.20554371724251       -1.27351474401336      o
        6.98452699687095        4.10645809042920       -0.03608754049822      h
        9.62014562473282        4.11854408898868       -1.38105134524799      h
        7.46130611810373       -5.38903908758324       -6.10392445284311      o
        6.04874142588278       -4.27810290600756       -6.53988945424333      h
        7.52270559037266       -5.44014811785375       -4.25657839793930      h
       -3.20425446457430        8.27522317190733        9.56131987720277      o
       -4.84611230460639        8.75027569344085       10.20845214984989      h
       -3.51583620070675        7.72598737727330        7.82572629802411      h
      -11.21205376511097        1.54014468328931       12.96345218462010      o
       -9.67734682741770        1.70471194680852       13.92449627087222      h
      -11.56935316003569        3.21755602101707       12.29147291495071      h
       -7.83752102895957        4.99561289690514        0.21379426394569      o
       -8.28828854663637        6.76233608298873        0.48331805112049      h
       -6.12090097012798        4.78223194152633        0.82608419889325      h
       12.70882192670278       -5.71759138856513       -3.27323962314909      o
       11.45385111768274       -4.36027069662989       -3.27582943718996      h
       12.08860992421400       -6.96222090741634       -2.03121915407302      h
       -9.78659833570089       -9.09451152395138        6.15716178601171      o
       -9.21579926185636       -7.95435448096636        7.48259760349571      h
       -8.56323108687078      -10.46346350952691        6.17744839829037      h
        8.79502324589436        0.24357846442673       -8.12160587740108      o
        9.14379903399612       -0.76408318735672       -6.60779589262561      h
        7.63784261175569       -0.75269644127108       -9.16542295468651      h
        6.24040462849036       -2.41455567289588      -11.62543723761292      o
        7.61818392139680       -3.47349765162030      -12.15421202377589      h
        4.87563266078597       -3.55866938688974      -11.12103171138076      h
      -10.12234688637559       -0.00568414482896       -7.80693398711114      o
       -9.80282533059111        0.87396999882016       -6.21776101811588      h
      -10.19652010103276       -1.79595582338383       -7.27688757525482      h
        9.91320353636724       -1.44514787975604       -3.49991297472059      o
        8.20151510988804       -1.34051614727223       -2.83924493164998      h
       10.93845280445450       -0.31712532658159       -2.47457872584808      h
        8.29534708029149      -12.55270795006807       -2.37068853300914      o
        9.77334343089544      -11.76036759403554       -1.61214927905476      h
        8.24554211211312      -11.91872787768035       -4.10424779306836      h
      -17.43357302107071       -0.50685028509890       -5.77850306928556      o
      -16.69653690636909       -0.91598338352814       -7.40371301065632      h
      -17.95648956798024        1.26536667127687       -5.95482401208599      h
       -5.51209212202550        1.74341554774787       13.71332096148573      o
       -6.29865180204447        2.54368843608080       12.23138369664434      h
       -4.05927544032570        2.77975603355583       14.07378957856376      h
        6.73707742165304        4.35943246823404       -5.94687329742901      o
        7.01477087053924        2.85212953481232       -6.95892415860606      h
        7.02252450946130        3.83450951841699       -4.19225499939078      h
       -3.28688270882669       12.71865752394759        3.22664553235837      o
       -2.28613911811074       12.51182068348720        4.79654641054876      h
       -3.37337754612211       11.06951240988663        2.42499063924454      h
       13.89475376095079       -1.88373467295616       -8.83778849546557      o
       12.52008330024580       -2.94299577630089       -9.48937217067513      h
       14.34114660652207       -0.69738594607844      -10.12958769769368      h
        0.45575023539049       -7.12431991540861        3.07833814778243      o
        0.43504185119308       -5.74823224471006        4.31527733561310      h
       -1.33867162300401       -7.64069934089578        2.88840380329205      h
      -16.12249620249539       -3.00802784440608       -0.43263282476204      o
      -15.77627806701558       -1.87951727556010        1.01311135932298      h
      -16.50840342780814       -4.69910029199160        0.24342579422511      h
      -13.80890215576607        6.99238644929321       -7.99338017510245      o
      -12.57870443241783        5.99488604971392       -9.00241810957602      h
      -14.28315083380386        8.40193039738277       -9.01942101516194      h
        3.76093066905827        6.16546583408459      -11.09125373716912      o
        4.48418092247052        4.94880692567421      -12.26231919566178      h
        3.34600542509974        5.17656791468909       -9.58409608153013      h
       16.26493018426704        1.94763522095912        4.39921993020073      o
       14.43703633315442        2.05894864625250        4.59594983314282      h
       16.96060948858593        3.47796533771931        5.19241597813819      h
       20.43824480307034        4.42343684248928       -4.44735629380456      o
       22.00327129439066        5.32365084470565       -4.37025411957360      h
       19.08769769168088        5.70212696041515       -4.29172298482387      h
[...]
   160   8 o      162   1 h                                       0.9724624
   163   8 o      164   1 h                                       0.9792426
   163   8 o      165   1 h                                       0.9794997
   166   8 o      167   1 h                                       0.9651830
   166   8 o      168   1 h                                       0.9775029
   169   8 o      170   1 h                                       0.9698019
   169   8 o      171   1 h                                       0.9725929
   172   8 o      173   1 h                                       0.9761345
   172   8 o      174   1 h                                       0.9758275
   175   8 o      176   1 h                                       0.9702117
   175   8 o      177   1 h                                       0.9731683
   178   8 o      179   1 h                                       0.9742091
   178   8 o      180   1 h                                       0.9852172
   181   8 o      182   1 h                                       0.9693689
   181   8 o      183   1 h                                       0.9715570
   184   8 o      185   1 h                                       0.9737938
   184   8 o      186   1 h                                       0.9760769
   187   8 o      188   1 h                                       0.9672842
   187   8 o      189   1 h                                       0.9732707
   190   8 o      191   1 h                                       0.9695882
   190   8 o      192   1 h                                       0.9787045
   193   8 o      194   1 h                                       0.9724540
   193   8 o      195   1 h                                       0.9691668
   196   8 o      197   1 h                                       0.9801271
   196   8 o      198   1 h                                       0.9731462
   199   8 o      200   1 h                                       0.9785607
   199   8 o      201   1 h                                       0.9784872
   202   8 o      203   1 h                                       0.9671288
   202   8 o      204   1 h                                       0.9773358
   205   8 o      206   1 h                                       0.9621737
   205   8 o      207   1 h                                       0.9747393
   208   8 o      209   1 h                                       0.9753449
   208   8 o      210   1 h                                       0.9710388
   211   8 o      212   1 h                                       0.9782308
   211   8 o      213   1 h                                       0.9866539
   214   8 o      215   1 h                                       0.9732474
   214   8 o      216   1 h                                       0.9715943
   217   8 o      218   1 h                                       0.9798567
   217   8 o      219   1 h                                       0.9787898
   220   8 o      221   1 h                                       0.9611870
   220   8 o      222   1 h                                       0.9794818
   223   8 o      224   1 h                                       0.9759492
   223   8 o      225   1 h                                       0.9888005
   226   8 o      227   1 h                                       0.9724930
   226   8 o      228   1 h                                       0.9721436
   229   8 o      230   1 h                                       0.9739821
   229   8 o      231   1 h                                       0.9771368
   232   8 o      233   1 h                                       0.9688309
   232   8 o      234   1 h                                       0.9822311
   235   8 o      236   1 h                                       0.9836508
   235   8 o      237   1 h                                       0.9634247
   238   8 o      239   1 h                                       0.9719191
   238   8 o      240   1 h                                       0.9808653
   241   8 o      242   1 h                                       0.9912520
   241   8 o      243   1 h                                       0.9714132
   244   8 o      245   1 h                                       0.9809517
   244   8 o      246   1 h                                       0.9577136
   247   8 o      248   1 h                                       0.9792017
   247   8 o      249   1 h                                       0.9932014
   250   8 o      251   1 h                                       0.9876749
   250   8 o      252   1 h                                       0.9851379
   253   8 o      254   1 h                                       0.9937480 (max)
   253   8 o      255   1 h                                       0.9561115
   256   8 o      257   1 h                                       0.9721239
   256   8 o      258   1 h                                       0.9788501
   259   8 o      260   1 h                                       0.9746476
   259   8 o      261   1 h                                       0.9836208
   262   8 o      263   1 h                                       0.9562803
   262   8 o      264   1 h                                       0.9876279
   265   8 o      266   1 h                                       0.9690255
   265   8 o      267   1 h                                       0.9746054
   268   8 o      269   1 h                                       0.9716958
   268   8 o      270   1 h                                       0.9822855
   271   8 o      272   1 h                                       0.9666327
   271   8 o      273   1 h                                       0.9804901
   274   8 o      275   1 h                                       0.9572945
   274   8 o      276   1 h                                       0.9669048
   277   8 o      278   1 h                                       0.9917806
   277   8 o      279   1 h                                       0.9557167 (min)
   280   8 o      281   1 h                                       0.9812563
   280   8 o      282   1 h                                       0.9622883
   283   8 o      284   1 h                                       0.9579227
   283   8 o      285   1 h                                       0.9790649
   286   8 o      287   1 h                                       0.9891025
   286   8 o      288   1 h                                       0.9640276
   289   8 o      290   1 h                                       0.9812257
   289   8 o      291   1 h                                       0.9830300
   292   8 o      293   1 h                                       0.9652719
   292   8 o      294   1 h                                       0.9677878
   295   8 o      296   1 h                                       0.9732349
   295   8 o      297   1 h                                       0.9731038
   298   8 o      299   1 h                                       0.9729479
   298   8 o      300   1 h                                       0.9777952
   301   8 o      302   1 h                                       0.9892337
   301   8 o      303   1 h                                       0.9608371
   304   8 o      305   1 h                                       0.9776445
   304   8 o      306   1 h                                       0.9699770
   307   8 o      308   1 h                                       0.9823960
   307   8 o      309   1 h                                       0.9644191
   310   8 o      311   1 h                                       0.9638162
   310   8 o      312   1 h                                       0.9732361
   313   8 o      314   1 h                                       0.9667884
   313   8 o      315   1 h                                       0.9772993
   316   8 o      317   1 h                                       0.9767014
   316   8 o      318   1 h                                       0.9692911
   319   8 o      320   1 h                                       0.9717270
   319   8 o      321   1 h                                       0.9684398
   322   8 o      323   1 h                                       0.9827909
   322   8 o      324   1 h                                       0.9695046
   325   8 o      326   1 h                                       0.9679044
   325   8 o      327   1 h                                       0.9678714
   328   8 o      329   1 h                                       0.9589909
   328   8 o      330   1 h                                       0.9921481
   331   8 o      332   1 h                                       0.9860087
   331   8 o      333   1 h                                       0.9643226
   334   8 o      335   1 h                                       0.9826129
   334   8 o      336   1 h                                       0.9672114
   337   8 o      338   1 h                                       0.9595297
   337   8 o      339   1 h                                       0.9897843
   340   8 o      341   1 h                                       0.9749834
   340   8 o      342   1 h                                       0.9694374
   343   8 o      344   1 h                                       0.9639339
   343   8 o      345   1 h                                       0.9743615
   346   8 o      347   1 h                                       0.9825263
   346   8 o      348   1 h                                       0.9676959
   349   8 o      350   1 h                                       0.9831188
   349   8 o      351   1 h                                       0.9686784
   352   8 o      353   1 h                                       0.9842218
   352   8 o      354   1 h                                       0.9734861
   355   8 o      356   1 h                                       0.9728944
   355   8 o      357   1 h                                       0.9718632
   358   8 o      359   1 h                                       0.9824637
   358   8 o      360   1 h                                       0.9607927
   361   8 o      362   1 h                                       0.9784118
   361   8 o      363   1 h                                       0.9561752
   364   8 o      365   1 h                                       0.9774403
   364   8 o      366   1 h                                       0.9757402
   367   8 o      368   1 h                                       0.9827201
   367   8 o      369   1 h                                       0.9562891
   370   8 o      371   1 h                                       0.9809451
   370   8 o      372   1 h                                       0.9736716
   373   8 o      374   1 h                                       0.9799901
   373   8 o      375   1 h                                       0.9657618
   376   8 o      377   1 h                                       0.9643530
   376   8 o      378   1 h                                       0.9642273
   379   8 o      380   1 h                                       0.9735638
   379   8 o      381   1 h                                       0.9755708
   382   8 o      383   1 h                                       0.9827377
   382   8 o      384   1 h                                       0.9571671
   385   8 o      386   1 h                                       0.9751984
   385   8 o      387   1 h                                       0.9751814
   388   8 o      389   1 h                                       0.9786684
   388   8 o      390   1 h                                       0.9680619
   391   8 o      392   1 h                                       0.9667828
   391   8 o      393   1 h                                       0.9723274
   394   8 o      395   1 h                                       0.9783287
   394   8 o      396   1 h                                       0.9801806
   397   8 o      398   1 h                                       0.9858188
   397   8 o      399   1 h                                       0.9628581
   400   8 o      401   1 h                                       0.9766404
   400   8 o      402   1 h                                       0.9701345
   403   8 o      404   1 h                                       0.9559288
   403   8 o      405   1 h                                       0.9754702
   406   8 o      407   1 h                                       0.9733083
   406   8 o      408   1 h                                       0.9686766
   409   8 o      410   1 h                                       0.9737809
   409   8 o      411   1 h                                       0.9746050
   412   8 o      413   1 h                                       0.9649380
   412   8 o      414   1 h                                       0.9644086
   415   8 o      416   1 h                                       0.9799027
   415   8 o      417   1 h                                       0.9741375
   418   8 o      419   1 h                                       0.9829229
   418   8 o      420   1 h                                       0.9825408
   421   8 o      422   1 h                                       0.9673193
   421   8 o      423   1 h                                       0.9758003
   424   8 o      425   1 h                                       0.9734381
   424   8 o      426   1 h                                       0.9663101
   427   8 o      428   1 h                                       0.9851723
   427   8 o      429   1 h                                       0.9817139
   430   8 o      431   1 h                                       0.9736248
   430   8 o      432   1 h                                       0.9651041
   433   8 o      434   1 h                                       0.9808847
   433   8 o      435   1 h                                       0.9638044
   436   8 o      437   1 h                                       0.9812220
   436   8 o      438   1 h                                       0.9837167
   439   8 o      440   1 h                                       0.9769127
   439   8 o      441   1 h                                       0.9753624
   442   8 o      443   1 h                                       0.9607872
   442   8 o      444   1 h                                       0.9714222
   445   8 o      446   1 h                                       0.9839455
   445   8 o      447   1 h                                       0.9726756
   448   8 o      449   1 h                                       0.9738618
   448   8 o      450   1 h                                       0.9713403
   451   8 o      452   1 h                                       0.9662305
   451   8 o      453   1 h                                       0.9892070
   454   8 o      455   1 h                                       0.9845838
   454   8 o      456   1 h                                       0.9706819
   457   8 o      458   1 h                                       0.9702026
   457   8 o      459   1 h                                       0.9703650
   460   8 o      461   1 h                                       0.9859678
   460   8 o      462   1 h                                       0.9663982
   463   8 o      464   1 h                                       0.9798153
   463   8 o      465   1 h                                       0.9721079
   466   8 o      467   1 h                                       0.9818340
   466   8 o      468   1 h                                       0.9568472
   469   8 o      470   1 h                                       0.9770700
   469   8 o      471   1 h                                       0.9711813
   472   8 o      473   1 h                                       0.9683879
   472   8 o      474   1 h                                       0.9746546
   475   8 o      476   1 h                                       0.9655258
   475   8 o      477   1 h                                       0.9787012
   478   8 o      479   1 h                                       0.9611541
   478   8 o      480   1 h                                       0.9932723
   481   8 o      482   1 h                                       0.9665310
   481   8 o      483   1 h                                       0.9635130
   484   8 o      485   1 h                                       0.9782235
   484   8 o      486   1 h                                       0.9837596
   487   8 o      488   1 h                                       0.9811488
   487   8 o      489   1 h                                       0.9758659
   490   8 o      491   1 h                                       0.9624004
   490   8 o      492   1 h                                       0.9862114
   493   8 o      494   1 h                                       0.9787399
   493   8 o      495   1 h                                       0.9685257
   496   8 o      497   1 h                                       0.9932331
   496   8 o      498   1 h                                       0.9574967
   499   8 o      500   1 h                                       0.9755194
   499   8 o      501   1 h                                       0.9660582
   502   8 o      503   1 h                                       0.9663282
   502   8 o      504   1 h                                       0.9676839
   505   8 o      506   1 h                                       0.9707093
   505   8 o      507   1 h                                       0.9839768
   508   8 o      509   1 h                                       0.9681613
   508   8 o      510   1 h                                       0.9778757
   511   8 o      512   1 h                                       0.9771874
   511   8 o      513   1 h                                       0.9567847
   514   8 o      515   1 h                                       0.9685191
   514   8 o      516   1 h                                       0.9706891
   517   8 o      518   1 h                                       0.9771205
   517   8 o      519   1 h                                       0.9732947
   520   8 o      521   1 h                                       0.9757141
   520   8 o      522   1 h                                       0.9677833
   523   8 o      524   1 h                                       0.9595123
   523   8 o      525   1 h                                       0.9800361
   526   8 o      527   1 h                                       0.9595802
   526   8 o      528   1 h                                       0.9769921
   529   8 o      530   1 h                                       0.9586597
   529   8 o      531   1 h                                       0.9608164

 * 1 distinct bonds (by element types)

   Z      Z             #   av. dist./Å        max./Å        min./Å
   1 H    8 O         354     0.9737082     0.9937480     0.9557167


optimized geometry written to: xtbopt.coord


           -------------------------------------------------
          | TOTAL ENERGY             -901.173669284253 Eh   |
          | GRADIENT NORM               0.002011215934 Eh/α |
          | HOMO-LUMO GAP               6.719949324720 eV   |
           -------------------------------------------------

------------------------------------------------------------------------
 * finished run on 2022/11/17 at 06:54:42.412     
------------------------------------------------------------------------
 total:
 * wall-time:     0 d,  0 h,  5 min, 54.429 sec
 *  cpu-time:     0 d,  0 h,  9 min, 11.005 sec
 * ratio c/w:     1.555 speedup
 SCF:
 * wall-time:     0 d,  0 h,  0 min,  8.481 sec
 *  cpu-time:     0 d,  0 h,  0 min, 13.163 sec
 * ratio c/w:     1.552 speedup
 ANC optimizer:
 * wall-time:     0 d,  0 h,  5 min, 45.314 sec
 *  cpu-time:     0 d,  0 h,  8 min, 56.733 sec
 * ratio c/w:     1.554 speedup

