      -----------------------------------------------------------      
     |                   =====================                   |     
     |                           x T B                           |     
     |                   =====================                   |     
     |                         S. Grimme                         |     
     |          Mulliken Center for Theoretical Chemistry        |     
     |                    University of Bonn                     |     
      -----------------------------------------------------------      

   * xtb version 6.5.1 (579679a) compiled by 'ehlert@majestix' on 2022-07-11

   xtb is free software: you can redistribute it and/or modify it under
   the terms of the GNU Lesser General Public License as published by
   the Free Software Foundation, either version 3 of the License, or
   (at your option) any later version.
   
   xtb is distributed in the hope that it will be useful,
   but WITHOUT ANY WARRANTY; without even the implied warranty of
   MERCHANTABILITY or FITNESS FOR A PARTICULAR PURPOSE.  See the
   GNU Lesser General Public License for more details.
   
   Cite this work as:
   * C. Bannwarth, E. Caldeweyher, S. Ehlert, A. Hansen, P. Pracht,
     J. Seibert, S. Spicher, S. Grimme, WIREs Comput. Mol. Sci., 2020, 11,
     e01493. DOI: 10.1002/wcms.1493
   
   for GFN2-xTB:
   * C. Bannwarth, S. Ehlert and S. Grimme., J. Chem. Theory Comput., 2019,
     15, 1652-1671. DOI: 10.1021/acs.jctc.8b01176
   for GFN1-xTB:
   * S. Grimme, C. Bannwarth, P. Shushkov, J. Chem. Theory Comput., 2017,
     13, 1989-2009. DOI: 10.1021/acs.jctc.7b00118
   for GFN0-xTB:
   * P. Pracht, E. Caldeweyher, S. Ehlert, S. Grimme, ChemRxiv, 2019, preprint.
     DOI: 10.26434/chemrxiv.8326202.v1
   for GFN-FF:
   * S. Spicher and S. Grimme, Angew. Chem. Int. Ed., 2020, 59, 15665-15673.
     DOI: 10.1002/anie.202004239
   
   for ALPB and GBSA implicit solvation:
   * S. Ehlert, M. Stahn, S. Spicher, S. Grimme, J. Chem. Theory Comput.,
     2021, 17, 4250-4261. DOI: 10.1021/acs.jctc.1c00471
   
   for DFT-D4:
   * E. Caldeweyher, C. Bannwarth and S. Grimme, J. Chem. Phys., 2017,
     147, 034112. DOI: 10.1063/1.4993215
   * E. Caldeweyher, S. Ehlert, A. Hansen, H. Neugebauer, S. Spicher,
     C. Bannwarth and S. Grimme, J. Chem. Phys., 2019, 150, 154122.
     DOI: 10.1063/1.5090222
   * E. Caldeweyher, J.-M. Mewes, S. Ehlert and S. Grimme, Phys. Chem. Chem. Phys.
     2020, 22, 8499-8512. DOI: 10.1039/D0CP00502A
   
   for sTDA-xTB:
   * S. Grimme and C. Bannwarth, J. Chem. Phys., 2016, 145, 054103.
     DOI: 10.1063/1.4959605
   
   in the mass-spec context:
   * V. Asgeirsson, C. Bauer and S. Grimme, Chem. Sci., 2017, 8, 4879.
     DOI: 10.1039/c7sc00601b
   * J. Koopman and S. Grimme, ACS Omega 2019, 4, 12, 15120-15133.
     DOI: 10.1021/acsomega.9b02011
   
   for metadynamics refer to:
   * S. Grimme, J. Chem. Theory Comput., 2019, 155, 2847-2862
     DOI: 10.1021/acs.jctc.9b00143
   
   for SPH calculations refer to:
   * S. Spicher and S. Grimme, J. Chem. Theory Comput., 2021, 17, 1701-1714
     DOI: 10.1021/acs.jctc.0c01306
   
   with help from (in alphabetical order)
   P. Atkinson, C. Bannwarth, F. Bohle, G. Brandenburg, E. Caldeweyher
   M. Checinski, S. Dohm, S. Ehlert, S. Ehrlich, I. Gerasimov, C. Hölzer
   A. Katbashev, J. Koopman, C. Lavigne, S. Lehtola, F. März, M. Müller,
   F. Musil, H. Neugebauer, J. Pisarek, C. Plett, P. Pracht, F. Pultar,
   J. Seibert, P. Shushkov, S. Spicher, M. Stahn, M. Steiner, T. Strunk,
   J. Stückrath, T. Rose, and J. Unsleber
   
 * started run on 2022/11/17 at 06:54:49.175     

           -------------------------------------------------
          |                Calculation Setup                |
           -------------------------------------------------

          program call               : xtb xtbopt.coord --gfn2 --sp --gbsa water
          hostname                   : cn0363
          coordinate file            : xtbopt.coord
          omp threads                :                     2

   ID    Z sym.   atoms
    1    8 o      1, 4, 7, 10, 13, 16, 19, 22, 25, 28, 31, 34, 37, 40, 43,
                  46, 49, 52, 55, 58, 61, 64, 67, 70, 73, 76, 79, 82, 85, 88,
                  91, 94, 97, 100, 103, 106, 109, 112, 115, 118, 121, 124,
                  127, 130, 133, 136, 139, 142, 145, 148, 151, 154, 157, 160,
                  163, 166, 169, 172, 175, 178, 181, 184, 187, 190, 193, 196,
                  199, 202, 205, 208, 211, 214, 217, 220, 223, 226, 229, 232,
                  235, 238, 241, 244, 247, 250, 253, 256, 259, 262, 265, 268,
                  271, 274, 277, 280, 283, 286, 289, 292, 295, 298, 301, 304,
                  307, 310, 313, 316, 319, 322, 325, 328, 331, 334, 337, 340,
                  343, 346, 349, 352, 355, 358, 361, 364, 367, 370, 373, 376,
                  379, 382, 385, 388, 391, 394, 397, 400, 403, 406, 409, 412,
                  415, 418, 421, 424, 427, 430, 433, 436, 439, 442, 445, 448,
                  451, 454, 457, 460, 463, 466, 469, 472, 475, 478, 481, 484,
                  487, 490, 493, 496, 499, 502, 505, 508, 511, 514, 517, 520,
                  523, 526, 529
    2    1 h      2, 3, 5, 6, 8, 9, 11, 12, 14, 15, 17, 18, 20, 21, 23, 24,
                  26, 27, 29, 30, 32, 33, 35, 36, 38, 39, 41, 42, 44, 45, 47,
                  48, 50, 51, 53, 54, 56, 57, 59, 60, 62, 63, 65, 66, 68, 69,
                  71, 72, 74, 75, 77, 78, 80, 81, 83, 84, 86, 87, 89, 90, 92,
                  93, 95, 96, 98, 99, 101, 102, 104, 105, 107, 108, 110, 111,
                  113, 114, 116, 117, 119, 120, 122, 123, 125, 126, 128, 129,
                  131, 132, 134, 135, 137, 138, 140, 141, 143, 144, 146, 147,
                  149, 150, 152, 153, 155, 156, 158, 159, 161, 162, 164, 165,
                  167, 168, 170, 171, 173, 174, 176, 177, 179, 180, 182, 183,
                  185, 186, 188, 189, 191, 192, 194, 195, 197, 198, 200, 201,
                  203, 204, 206, 207, 209, 210, 212, 213, 215, 216, 218, 219,
                  221, 222, 224, 225, 227, 228, 230, 231, 233, 234, 236, 237,
                  239, 240, 242, 243, 245, 246, 248, 249, 251, 252, 254, 255,
                  257, 258, 260, 261, 263, 264, 266, 267, 269, 270, 272, 273,
                  275, 276, 278, 279, 281, 282, 284, 285, 287, 288, 290, 291,
                  293, 294, 296, 297, 299, 300, 302, 303, 305, 306, 308, 309,
                  311, 312, 314, 315, 317, 318, 320, 321, 323, 324, 326, 327,
                  329, 330, 332, 333, 335, 336, 338, 339, 341, 342, 344, 345,
                  347, 348, 350, 351, 353, 354, 356, 357, 359, 360, 362, 363,
                  365, 366, 368, 369, 371, 372, 374, 375, 377, 378, 380, 381,
                  383, 384, 386, 387, 389, 390, 392, 393, 395, 396, 398, 399,
                  401, 402, 404, 405, 407, 408, 410, 411, 413, 414, 416, 417,
                  419, 420, 422, 423, 425, 426, 428, 429, 431, 432, 434, 435,
                  437, 438, 440, 441, 443, 444, 446, 447, 449, 450, 452, 453,
                  455, 456, 458, 459, 461, 462, 464, 465, 467, 468, 470, 471,
                  473, 474, 476, 477, 479, 480, 482, 483, 485, 486, 488, 489,
                  491, 492, 494, 495, 497, 498, 500, 501, 503, 504, 506, 507,
                  509, 510, 512, 513, 515, 516, 518, 519, 521, 522, 524, 525,
                  527, 528, 530, 531

molecular fragmentation (1/2 indicates fragments):
111222222222222222222222222222222222222222222222222222222222222222222222
222222222222222222222222222222222222222222222222222222222222222222222222
222222222222222222222222222222222222222222222222222222222222222222222222
222222222222222222222222222222222222222222222222222222222222222222222222
222222222222222222222222222222222222222222222222222222222222222222222222
222222222222222222222222222222222222222222222222222222222222222222222222
222222222222222222222222222222222222222222222222222222222222222222222222
222222222222222222222222222
# atoms in fragment 1/2:     3   528
 fragment masses (1/2) :       18.02     3170.69
CMA distance (Bohr)    :   7.804
constraining FC (au)   :  0.0500

           -------------------------------------------------
          |                 G F N 2 - x T B                 |
           -------------------------------------------------

        Reference                      10.1021/acs.jctc.8b01176
      * Hamiltonian:
        H0-scaling (s, p, d)           1.850000    2.230000    2.230000
        zeta-weighting                 0.500000
      * Dispersion:
        s8                             2.700000
        a1                             0.520000
        a2                             5.000000
        s9                             5.000000
      * Repulsion:
        kExp                           1.500000    1.000000
        rExp                           1.000000
      * Coulomb:
        alpha                          2.000000
        third order                    shell-resolved
        anisotropic                    true
        a3                             3.000000
        a5                             4.000000
        cn-shift                       1.200000
        cn-exp                         4.000000
        max-rad                        5.000000

      * Solvation model:               GBSA
        Solvent                        water
        Parameter file                 internal GFN2-xTB/GBSA
        Dielectric constant                8.0200E+01
        Reference state                gsolv [1 M gas/solution]
        Free energy shift                  1.8574E-03 Eh       1.1656E+00 kcal/mol
        Temperature                        2.9815E+02 K
        Density                            1.0000E+00 kg/L
        Solvent mass                       1.8000E+01 g/mol
        Interaction kernel             Still
        Born radius scaling (c1)           1.5524E+00
        Born radii integrator          GBOBC
        Born offset                        2.4628E-02 a0       4.6540E-02 AA
        H-bond correction              true
        Ion screening                  false
        Surface tension                    1.0000E-05 Eh       1.5569E+01 dyn/cm
        Grid points                               230 per atom

          ...................................................
          :                      SETUP                      :
          :.................................................:
          :  # basis functions                1062          :
          :  # atomic orbitals                1062          :
          :  # shells                          708          :
          :  # electrons                      1416          :
          :  max. iterations                   250          :
          :  Hamiltonian                  GFN2-xTB          :
          :  restarted?                      false          :
          :  GBSA solvation                   true          :
          :  PC potential                    false          :
          :  electronic temp.          300.0000000     K    :
          :  accuracy                    1.0000000          :
          :  -> integral cutoff          0.2500000E+02      :
          :  -> integral neglect         0.1000000E-07      :
          :  -> SCF convergence          0.1000000E-05 Eh   :
          :  -> wf. convergence          0.1000000E-03 e    :
          :  Broyden damping             0.4000000          :
          ...................................................

 iter      E             dE          RMSdq      gap      omega  full diag
   1   -906.7536018 -0.906754E+03  0.408E+00    8.59       0.0  T
   2   -906.8166637 -0.630619E-01  0.241E+00    8.39       1.0  T
   3   -906.8422899 -0.256262E-01  0.231E-01    7.46       1.0  T
   4   -906.8463142 -0.402432E-02  0.506E-02    7.74       1.0  T
   5   -906.8464637 -0.149459E-03  0.314E-02    7.67       1.0  T
   6   -906.8464967 -0.330541E-04  0.355E-03    7.69       1.2  T
   7   -906.8464978 -0.104108E-05  0.831E-04    7.69       5.2  T
   8   -906.8464978 -0.365807E-07  0.459E-04    7.69       9.5  T
   9   -906.8464978 -0.199479E-07  0.112E-04    7.69      38.7  T

   *** convergence criteria satisfied after 9 iterations ***

         #    Occupation            Energy/Eh            Energy/eV
      -------------------------------------------------------------
         1        2.0000           -0.6562603             -17.8578
       ...           ...                  ...                  ...
       702        2.0000           -0.3516720              -9.5695
       703        2.0000           -0.3509384              -9.5495
       704        2.0000           -0.3494868              -9.5100
       705        2.0000           -0.3490117              -9.4971
       706        2.0000           -0.3387207              -9.2171
       707        2.0000           -0.3353972              -9.1266
       708        2.0000           -0.3346464              -9.1062 (HOMO)
       709                         -0.0522103              -1.4207 (LUMO)
       710                         -0.0453470              -1.2340
       711                         -0.0282687              -0.7692
       712                         -0.0271881              -0.7398
       713                         -0.0183971              -0.5006
       ...                                ...                  ...
      1062                          0.4890576              13.3079
      -------------------------------------------------------------
                  HL-Gap            0.2824362 Eh            7.6855 eV
             Fermi-level           -0.1934284 Eh           -5.2635 eV

 SCC (total)                   0 d,  0 h,  0 min,  7.451 sec
 SCC setup                      ...        0 min,  0.060 sec (  0.806%)
 Dispersion                     ...        0 min,  0.051 sec (  0.681%)
 classical contributions        ...        0 min,  0.012 sec (  0.154%)
 integral evaluation            ...        0 min,  0.314 sec (  4.216%)
 iterations                     ...        0 min,  2.240 sec ( 30.068%)
 molecular gradient             ...        0 min,  4.748 sec ( 63.716%)
 printout                       ...        0 min,  0.027 sec (  0.358%)

         :::::::::::::::::::::::::::::::::::::::::::::::::::::
         ::                     SUMMARY                     ::
         :::::::::::::::::::::::::::::::::::::::::::::::::::::
         :: total energy            -901.398678172725 Eh    ::
         :: total w/o Gsasa/hb      -901.200633148349 Eh    ::
         :: gradient norm              0.105019492630 Eh/a0 ::
         :: HOMO-LUMO gap              7.685479451636 eV    ::
         ::.................................................::
         :: SCC energy              -906.846497834161 Eh    ::
         :: -> isotropic ES            5.285286233001 Eh    ::
         :: -> anisotropic ES         -1.121293726930 Eh    ::
         :: -> anisotropic XC         -0.087004903678 Eh    ::
         :: -> dispersion             -0.527615485972 Eh    ::
         :: -> Gsolv                  -0.239913120807 Eh    ::
         ::    -> Gelec               -0.041868096431 Eh    ::
         ::    -> Gsasa                0.003666610964 Eh    ::
         ::    -> Ghb                 -0.203569078467 Eh    ::
         ::    -> Gshift               0.001857443127 Eh    ::
         :: repulsion energy           5.357108740225 Eh    ::
         :: add. restraining           0.000000000000 Eh    ::
         :: total charge              -0.000000000000 e     ::
         :::::::::::::::::::::::::::::::::::::::::::::::::::::

           -------------------------------------------------
          |                Property Printout                |
           -------------------------------------------------

    * Orbital Energies and Occupations

         #    Occupation            Energy/Eh            Energy/eV
      -------------------------------------------------------------
         1        2.0000           -0.6562603             -17.8578
       ...           ...                  ...                  ...
       696        2.0000           -0.3603388              -9.8053
       697        2.0000           -0.3589190              -9.7667
       698        2.0000           -0.3582457              -9.7484
       699        2.0000           -0.3578150              -9.7366
       700        2.0000           -0.3568766              -9.7111
       701        2.0000           -0.3568112              -9.7093
       702        2.0000           -0.3516720              -9.5695
       703        2.0000           -0.3509384              -9.5495
       704        2.0000           -0.3494868              -9.5100
       705        2.0000           -0.3490117              -9.4971
       706        2.0000           -0.3387207              -9.2171
       707        2.0000           -0.3353972              -9.1266
       708        2.0000           -0.3346464              -9.1062 (HOMO)
       709                         -0.0522103              -1.4207 (LUMO)
       710                         -0.0453470              -1.2340
       711                         -0.0282687              -0.7692
       712                         -0.0271881              -0.7398
       713                         -0.0183971              -0.5006
       714                         -0.0127026              -0.3457
       715                         -0.0058387              -0.1589
       716                          0.0015406               0.0419
       717                          0.0028592               0.0778
       718                          0.0107242               0.2918
       719                          0.0120599               0.3282
       ...                                ...                  ...
      1062                          0.4890576              13.3079
      -------------------------------------------------------------
                  HL-Gap            0.2824362 Eh            7.6855 eV
             Fermi-level           -0.1934284 Eh           -5.2635 eV

     #   Z          covCN         q      C6AA      α(0)
     1   8 o        1.608    -0.669    26.906     7.001
     2   1 h        0.805     0.345     0.599     1.216
     3   1 h        0.802     0.343     0.605     1.222
     4   8 o        1.609    -0.648    26.361     6.930
     5   1 h        0.805     0.324     0.652     1.269
     6   1 h        0.804     0.352     0.584     1.200
     7   8 o        1.608    -0.697    27.630     7.094
     8   1 h        0.804     0.342     0.607     1.224
     9   1 h        0.804     0.338     0.618     1.235
    10   8 o        1.608    -0.673    27.014     7.015
    11   1 h        0.804     0.316     0.676     1.292
    12   1 h        0.803     0.331     0.634     1.251
    13   8 o        1.607    -0.662    26.714     6.976
    14   1 h        0.804     0.329     0.639     1.256
    15   1 h        0.803     0.333     0.629     1.246
    16   8 o        1.607    -0.678    27.134     7.030
    17   1 h        0.805     0.330     0.638     1.255
    18   1 h        0.803     0.362     0.560     1.176
    19   8 o        1.607    -0.691    27.482     7.075
    20   1 h        0.804     0.332     0.632     1.249
    21   1 h        0.803     0.351     0.587     1.203
    22   8 o        1.607    -0.673    27.011     7.014
    23   1 h        0.803     0.346     0.598     1.215
    24   1 h        0.803     0.325     0.651     1.268
    25   8 o        1.606    -0.698    27.658     7.098
    26   1 h        0.804     0.334     0.627     1.244
    27   1 h        0.803     0.362     0.561     1.177
    28   8 o        1.608    -0.671    26.957     7.007
    29   1 h        0.804     0.347     0.595     1.212
    30   1 h        0.804     0.341     0.610     1.227
    31   8 o        1.606    -0.719    28.218     7.169
    32   1 h        0.803     0.337     0.620     1.237
    33   1 h        0.803     0.333     0.629     1.246
    34   8 o        1.608    -0.659    26.637     6.966
    35   1 h        0.804     0.344     0.602     1.219
    36   1 h        0.804     0.333     0.630     1.247
    37   8 o        1.607    -0.680    27.189     7.037
    38   1 h        0.804     0.345     0.601     1.218
    39   1 h        0.803     0.336     0.622     1.239
    40   8 o        1.607    -0.676    27.083     7.024
    41   1 h        0.804     0.336     0.623     1.240
    42   1 h        0.803     0.349     0.590     1.206
    43   8 o        1.609    -0.685    27.321     7.055
    44   1 h        0.804     0.344     0.601     1.218
    45   1 h        0.805     0.326     0.646     1.263
    46   8 o        1.609    -0.662    26.714     6.976
    47   1 h        0.805     0.322     0.658     1.274
    48   1 h        0.805     0.343     0.604     1.221
    49   8 o        1.606    -0.688    27.400     7.065
    50   1 h        0.803     0.331     0.636     1.253
    51   1 h        0.802     0.350     0.588     1.205
    52   8 o        1.609    -0.659    26.642     6.966
    53   1 h        0.805     0.334     0.627     1.244
    54   1 h        0.803     0.333     0.629     1.246
    55   8 o        1.606    -0.689    27.417     7.067
    56   1 h        0.803     0.330     0.637     1.254
    57   1 h        0.803     0.353     0.582     1.199
    58   8 o        1.609    -0.663    26.755     6.981
    59   1 h        0.805     0.341     0.610     1.227
    60   1 h        0.804     0.324     0.652     1.269
    61   8 o        1.609    -0.663    26.741     6.979
    62   1 h        0.805     0.331     0.633     1.250
    63   1 h        0.804     0.346     0.598     1.215
    64   8 o        1.607    -0.670    26.920     7.003
    65   1 h        0.803     0.336     0.622     1.239
    66   1 h        0.803     0.336     0.622     1.239
    67   8 o        1.609    -0.651    26.443     6.940
    68   1 h        0.804     0.341     0.611     1.228
    69   1 h        0.805     0.325     0.651     1.267
    70   8 o        1.607    -0.649    26.395     6.934
    71   1 h        0.802     0.339     0.616     1.233
    72   1 h        0.805     0.344     0.602     1.219
    73   8 o        1.609    -0.663    26.743     6.980
    74   1 h        0.805     0.344     0.602     1.219
    75   1 h        0.804     0.330     0.637     1.254
    76   8 o        1.607    -0.687    27.369     7.061
    77   1 h        0.803     0.326     0.649     1.266
    78   1 h        0.803     0.332     0.633     1.249
    79   8 o        1.607    -0.668    26.874     6.996
    80   1 h        0.806     0.308     0.698     1.313
    81   1 h        0.802     0.365     0.554     1.170
    82   8 o        1.608    -0.671    26.949     7.006
    83   1 h        0.803     0.354     0.580     1.196
    84   1 h        0.805     0.319     0.667     1.282
    85   8 o        1.608    -0.660    26.661     6.969
    86   1 h        0.804     0.337     0.618     1.235
    87   1 h        0.804     0.345     0.600     1.217
    88   8 o        1.608    -0.668    26.866     6.996
    89   1 h        0.804     0.323     0.656     1.273
    90   1 h        0.804     0.333     0.629     1.246
    91   8 o        1.605    -0.699    27.686     7.101
    92   1 h        0.803     0.363     0.559     1.175
    93   1 h        0.803     0.330     0.637     1.254
    94   8 o        1.609    -0.669    26.890     6.999
    95   1 h        0.805     0.339     0.616     1.233
    96   1 h        0.804     0.337     0.620     1.237
    97   8 o        1.608    -0.672    26.977     7.010
    98   1 h        0.805     0.334     0.627     1.244
    99   1 h        0.803     0.346     0.598     1.215
   100   8 o        1.607    -0.692    27.498     7.077
   101   1 h        0.805     0.354     0.578     1.194
   102   1 h        0.803     0.346     0.598     1.215
   103   8 o        1.606    -0.692    27.494     7.077
   104   1 h        0.803     0.332     0.633     1.250
   105   1 h        0.803     0.334     0.626     1.243
   106   8 o        1.608    -0.669    26.911     7.001
   107   1 h        0.806     0.311     0.689     1.304
   108   1 h        0.802     0.351     0.586     1.203
   109   8 o        1.607    -0.689    27.416     7.067
   110   1 h        0.805     0.322     0.658     1.274
   111   1 h        0.803     0.357     0.571     1.187
   112   8 o        1.608    -0.667    26.840     6.992
   113   1 h        0.804     0.340     0.612     1.229
   114   1 h        0.804     0.355     0.578     1.194
   115   8 o        1.609    -0.667    26.837     6.992
   116   1 h        0.803     0.362     0.560     1.176
   117   1 h        0.805     0.343     0.605     1.222
   118   8 o        1.606    -0.685    27.319     7.054
   119   1 h        0.803     0.333     0.631     1.248
   120   1 h        0.802     0.338     0.618     1.235
   121   8 o        1.606    -0.660    26.675     6.971
   122   1 h        0.802     0.332     0.632     1.249
   123   1 h        0.804     0.325     0.651     1.268
   124   8 o        1.606    -0.690    27.444     7.070
   125   1 h        0.804     0.332     0.633     1.250
   126   1 h        0.802     0.357     0.573     1.189
   127   8 o        1.609    -0.661    26.698     6.974
   128   1 h        0.803     0.351     0.585     1.202
   129   1 h        0.805     0.313     0.683     1.298
   130   8 o        1.606    -0.690    27.456     7.072
   131   1 h        0.803     0.354     0.580     1.196
   132   1 h        0.803     0.330     0.637     1.253
   133   8 o        1.606    -0.701    27.742     7.109
   134   1 h        0.802     0.336     0.623     1.240
   135   1 h        0.804     0.326     0.649     1.265
   136   8 o        1.605    -0.682    27.237     7.044
   137   1 h        0.802     0.346     0.598     1.215
   138   1 h        0.804     0.327     0.645     1.261
   139   8 o        1.607    -0.681    27.216     7.041
   140   1 h        0.803     0.333     0.631     1.248
   141   1 h        0.804     0.338     0.618     1.235
   142   8 o        1.609    -0.699    27.672     7.100
   143   1 h        0.805     0.334     0.627     1.243
   144   1 h        0.804     0.340     0.611     1.228
   145   8 o        1.608    -0.666    26.824     6.990
   146   1 h        0.804     0.335     0.626     1.243
   147   1 h        0.804     0.331     0.635     1.252
   148   8 o        1.608    -0.680    27.183     7.037
   149   1 h        0.804     0.332     0.633     1.249
   150   1 h        0.803     0.346     0.597     1.214
   151   8 o        1.610    -0.642    26.213     6.910
   152   1 h        0.806     0.321     0.660     1.276
   153   1 h        0.804     0.343     0.605     1.222
   154   8 o        1.608    -0.674    27.032     7.017
   155   1 h        0.805     0.324     0.653     1.270
   156   1 h        0.803     0.344     0.603     1.219
   157   8 o        1.608    -0.682    27.239     7.044
   158   1 h        0.804     0.338     0.616     1.233
   159   1 h        0.804     0.331     0.635     1.252
   160   8 o        1.607    -0.676    27.081     7.023
   161   1 h        0.803     0.341     0.611     1.228
   162   1 h        0.804     0.342     0.607     1.224
   163   8 o        1.607    -0.691    27.471     7.074
   164   1 h        0.803     0.351     0.585     1.202
   165   1 h        0.803     0.335     0.625     1.242
   166   8 o        1.608    -0.645    26.284     6.919
   167   1 h        0.805     0.323     0.657     1.273
   168   1 h        0.803     0.347     0.595     1.212
   169   8 o        1.608    -0.675    27.052     7.020
   170   1 h        0.804     0.335     0.626     1.243
   171   1 h        0.804     0.337     0.621     1.238
   172   8 o        1.607    -0.667    26.836     6.992
   173   1 h        0.803     0.338     0.616     1.233
   174   1 h        0.804     0.335     0.625     1.242
   175   8 o        1.609    -0.665    26.799     6.987
   176   1 h        0.804     0.340     0.611     1.228
   177   1 h        0.804     0.318     0.669     1.285
   178   8 o        1.607    -0.658    26.622     6.964
   179   1 h        0.804     0.357     0.573     1.189
   180   1 h        0.802     0.339     0.614     1.231
   181   8 o        1.609    -0.681    27.221     7.042
   182   1 h        0.804     0.341     0.609     1.226
   183   1 h        0.804     0.323     0.656     1.273
   184   8 o        1.608    -0.663    26.751     6.981
   185   1 h        0.804     0.354     0.579     1.196
   186   1 h        0.803     0.334     0.628     1.245
   187   8 o        1.608    -0.652    26.464     6.943
   188   1 h        0.805     0.328     0.643     1.259
   189   1 h        0.804     0.338     0.618     1.235
   190   8 o        1.607    -0.668    26.879     6.997
   191   1 h        0.804     0.320     0.664     1.280
   192   1 h        0.803     0.336     0.623     1.240
   193   8 o        1.608    -0.675    27.042     7.018
   194   1 h        0.804     0.341     0.611     1.228
   195   1 h        0.804     0.347     0.595     1.212
   196   8 o        1.607    -0.682    27.238     7.044
   197   1 h        0.804     0.346     0.597     1.214
   198   1 h        0.804     0.338     0.616     1.233
   199   8 o        1.606    -0.696    27.616     7.092
   200   1 h        0.803     0.345     0.599     1.216
   201   1 h        0.803     0.355     0.576     1.193
   202   8 o        1.608    -0.673    27.005     7.014
   203   1 h        0.805     0.329     0.641     1.257
   204   1 h        0.803     0.361     0.562     1.178
   205   8 o        1.609    -0.655    26.548     6.954
   206   1 h        0.805     0.322     0.658     1.274
   207   1 h        0.804     0.342     0.606     1.223
   208   8 o        1.608    -0.681    27.198     7.039
   209   1 h        0.804     0.348     0.593     1.210
   210   1 h        0.804     0.343     0.605     1.221
   211   8 o        1.605    -0.694    27.552     7.084
   212   1 h        0.803     0.361     0.563     1.179
   213   1 h        0.802     0.340     0.612     1.229
   214   8 o        1.608    -0.670    26.918     7.002
   215   1 h        0.804     0.337     0.619     1.236
   216   1 h        0.804     0.327     0.645     1.262
   217   8 o        1.606    -0.698    27.671     7.099
   218   1 h        0.803     0.358     0.570     1.186
   219   1 h        0.803     0.337     0.621     1.238
   220   8 o        1.608    -0.651    26.431     6.939
   221   1 h        0.805     0.326     0.648     1.265
   222   1 h        0.803     0.351     0.585     1.202
   223   8 o        1.605    -0.698    27.662     7.098
   224   1 h        0.804     0.354     0.579     1.195
   225   1 h        0.802     0.351     0.587     1.203
   226   8 o        1.608    -0.683    27.263     7.047
   227   1 h        0.804     0.354     0.579     1.196
   228   1 h        0.804     0.353     0.580     1.197
   229   8 o        1.608    -0.687    27.371     7.061
   230   1 h        0.804     0.340     0.611     1.228
   231   1 h        0.803     0.333     0.631     1.248
   232   8 o        1.607    -0.667    26.861     6.995
   233   1 h        0.804     0.321     0.662     1.278
   234   1 h        0.803     0.331     0.636     1.253
   235   8 o        1.607    -0.685    27.328     7.055
   236   1 h        0.802     0.352     0.584     1.201
   237   1 h        0.805     0.319     0.666     1.282
   238   8 o        1.607    -0.691    27.476     7.075
   239   1 h        0.804     0.332     0.632     1.248
   240   1 h        0.803     0.352     0.583     1.199
   241   8 o        1.605    -0.699    27.687     7.101
   242   1 h        0.802     0.333     0.629     1.246
   243   1 h        0.804     0.354     0.578     1.195
   244   8 o        1.608    -0.643    26.245     6.914
   245   1 h        0.803     0.337     0.620     1.237
   246   1 h        0.806     0.306     0.703     1.317
   247   8 o        1.604    -0.703    27.791     7.115
   248   1 h        0.803     0.337     0.621     1.238
   249   1 h        0.801     0.349     0.591     1.208
   250   8 o        1.604    -0.691    27.465     7.073
   251   1 h        0.802     0.357     0.573     1.190
   252   1 h        0.802     0.334     0.627     1.244
   253   8 o        1.606    -0.665    26.805     6.988
   254   1 h        0.801     0.347     0.596     1.213
   255   1 h        0.806     0.310     0.691     1.305
   256   8 o        1.607    -0.688    27.402     7.065
   257   1 h        0.804     0.317     0.672     1.288
   258   1 h        0.803     0.354     0.580     1.196
   259   8 o        1.607    -0.675    27.055     7.020
   260   1 h        0.804     0.360     0.566     1.182
   261   1 h        0.802     0.331     0.636     1.253
   262   8 o        1.607    -0.660    26.676     6.971
   263   1 h        0.806     0.308     0.699     1.313
   264   1 h        0.802     0.345     0.601     1.217
   265   8 o        1.609    -0.683    27.251     7.046
   266   1 h        0.804     0.337     0.619     1.235
   267   1 h        0.804     0.332     0.633     1.250
   268   8 o        1.607    -0.707    27.899     7.129
   269   1 h        0.804     0.334     0.627     1.244
   270   1 h        0.803     0.347     0.595     1.211
   271   8 o        1.608    -0.668    26.865     6.995
   272   1 h        0.805     0.331     0.634     1.251
   273   1 h        0.803     0.339     0.614     1.231
   274   8 o        1.610    -0.637    26.089     6.894
   275   1 h        0.806     0.314     0.679     1.295
   276   1 h        0.805     0.338     0.617     1.233
   277   8 o        1.607    -0.670    26.934     7.004
   278   1 h        0.802     0.347     0.596     1.213
   279   1 h        0.806     0.320     0.664     1.280
   280   8 o        1.608    -0.667    26.837     6.992
   281   1 h        0.803     0.342     0.609     1.226
   282   1 h        0.805     0.338     0.618     1.235
   283   8 o        1.609    -0.647    26.330     6.925
   284   1 h        0.806     0.308     0.696     1.310
   285   1 h        0.803     0.338     0.618     1.235
   286   8 o        1.606    -0.672    26.977     7.010
   287   1 h        0.802     0.336     0.623     1.240
   288   1 h        0.805     0.331     0.635     1.251
   289   8 o        1.605    -0.701    27.737     7.108
   290   1 h        0.803     0.323     0.655     1.271
   291   1 h        0.803     0.353     0.581     1.197
   292   8 o        1.609    -0.667    26.854     6.994
   293   1 h        0.805     0.332     0.633     1.250
   294   1 h        0.805     0.337     0.620     1.237
   295   8 o        1.608    -0.681    27.205     7.040
   296   1 h        0.804     0.352     0.583     1.200
   297   1 h        0.804     0.346     0.598     1.214
   298   8 o        1.607    -0.693    27.518     7.080
   299   1 h        0.804     0.346     0.599     1.215
   300   1 h        0.803     0.346     0.597     1.214
   301   8 o        1.607    -0.685    27.329     7.055
   302   1 h        0.802     0.358     0.569     1.185
   303   1 h        0.805     0.321     0.660     1.276
   304   8 o        1.608    -0.681    27.209     7.040
   305   1 h        0.803     0.352     0.584     1.200
   306   1 h        0.804     0.325     0.651     1.267
   307   8 o        1.607    -0.675    27.067     7.022
   308   1 h        0.803     0.343     0.606     1.222
   309   1 h        0.805     0.328     0.643     1.259
   310   8 o        1.609    -0.662    26.717     6.976
   311   1 h        0.805     0.335     0.625     1.242
   312   1 h        0.804     0.347     0.596     1.212
   313   8 o        1.609    -0.669    26.901     7.000
   314   1 h        0.805     0.340     0.613     1.229
   315   1 h        0.803     0.326     0.649     1.265
   316   8 o        1.608    -0.678    27.121     7.029
   317   1 h        0.803     0.348     0.594     1.210
   318   1 h        0.804     0.319     0.666     1.282
   319   8 o        1.608    -0.669    26.894     6.999
   320   1 h        0.804     0.348     0.592     1.209
   321   1 h        0.804     0.323     0.656     1.273
   322   8 o        1.607    -0.672    26.966     7.009
   323   1 h        0.802     0.366     0.552     1.167
   324   1 h        0.804     0.333     0.629     1.246
   325   8 o        1.609    -0.685    27.314     7.054
   326   1 h        0.805     0.337     0.619     1.235
   327   1 h        0.805     0.335     0.624     1.241
   328   8 o        1.606    -0.682    27.228     7.042
   329   1 h        0.805     0.314     0.679     1.295
   330   1 h        0.801     0.358     0.569     1.186
   331   8 o        1.607    -0.669    26.896     6.999
   332   1 h        0.802     0.348     0.594     1.211
   333   1 h        0.805     0.329     0.641     1.257
   334   8 o        1.607    -0.679    27.160     7.034
   335   1 h        0.803     0.347     0.595     1.212
   336   1 h        0.805     0.325     0.651     1.268
   337   8 o        1.607    -0.679    27.150     7.032
   338   1 h        0.805     0.315     0.677     1.292
   339   1 h        0.802     0.360     0.567     1.183
   340   8 o        1.608    -0.651    26.432     6.939
   341   1 h        0.804     0.337     0.620     1.237
   342   1 h        0.804     0.322     0.658     1.274
   343   8 o        1.609    -0.660    26.677     6.971
   344   1 h        0.805     0.319     0.666     1.281
   345   1 h        0.804     0.337     0.621     1.238
   346   8 o        1.607    -0.694    27.564     7.086
   347   1 h        0.803     0.354     0.579     1.195
   348   1 h        0.805     0.338     0.617     1.234
   349   8 o        1.607    -0.693    27.524     7.081
   350   1 h        0.803     0.352     0.583     1.200
   351   1 h        0.804     0.309     0.694     1.309
   352   8 o        1.606    -0.663    26.745     6.980
   353   1 h        0.802     0.330     0.638     1.255
   354   1 h        0.804     0.324     0.653     1.270
   355   8 o        1.608    -0.681    27.211     7.040
   356   1 h        0.804     0.334     0.628     1.245
   357   1 h        0.804     0.341     0.609     1.225
   358   8 o        1.608    -0.679    27.147     7.032
   359   1 h        0.803     0.351     0.586     1.203
   360   1 h        0.805     0.314     0.680     1.295
   361   8 o        1.609    -0.660    26.673     6.970
   362   1 h        0.803     0.346     0.597     1.214
   363   1 h        0.806     0.309     0.696     1.310
   364   8 o        1.607    -0.690    27.444     7.070
   365   1 h        0.803     0.356     0.575     1.191
   366   1 h        0.804     0.337     0.619     1.236
   367   8 o        1.608    -0.654    26.527     6.951
   368   1 h        0.802     0.348     0.592     1.209
   369   1 h        0.806     0.308     0.696     1.311
   370   8 o        1.607    -0.680    27.189     7.037
   371   1 h        0.803     0.331     0.634     1.251
   372   1 h        0.804     0.342     0.607     1.224
   373   8 o        1.608    -0.679    27.169     7.035
   374   1 h        0.803     0.353     0.581     1.197
   375   1 h        0.805     0.327     0.646     1.262
   376   8 o        1.610    -0.650    26.425     6.938
   377   1 h        0.805     0.342     0.606     1.223
   378   1 h        0.805     0.338     0.617     1.234
   379   8 o        1.607    -0.702    27.770     7.112
   380   1 h        0.804     0.326     0.648     1.264
   381   1 h        0.804     0.333     0.630     1.247
   382   8 o        1.608    -0.656    26.576     6.958
   383   1 h        0.803     0.357     0.573     1.190
   384   1 h        0.806     0.321     0.661     1.277
   385   8 o        1.608    -0.674    27.020     7.016
   386   1 h        0.804     0.345     0.599     1.216
   387   1 h        0.804     0.346     0.599     1.215
   388   8 o        1.608    -0.663    26.749     6.980
   389   1 h        0.803     0.346     0.599     1.215
   390   1 h        0.804     0.335     0.626     1.243
   391   8 o        1.609    -0.674    27.016     7.015
   392   1 h        0.805     0.332     0.632     1.249
   393   1 h        0.804     0.336     0.622     1.239
   394   8 o        1.606    -0.680    27.192     7.038
   395   1 h        0.803     0.356     0.574     1.190
   396   1 h        0.803     0.330     0.638     1.255
   397   8 o        1.607    -0.657    26.596     6.960
   398   1 h        0.802     0.343     0.605     1.222
   399   1 h        0.805     0.322     0.657     1.273
   400   8 o        1.608    -0.663    26.743     6.979
   401   1 h        0.803     0.355     0.577     1.193
   402   1 h        0.804     0.332     0.631     1.248
   403   8 o        1.609    -0.644    26.272     6.918
   404   1 h        0.806     0.313     0.682     1.297
   405   1 h        0.804     0.341     0.609     1.226
   406   8 o        1.608    -0.679    27.158     7.033
   407   1 h        0.804     0.340     0.612     1.229
   408   1 h        0.804     0.335     0.625     1.242
   409   8 o        1.608    -0.691    27.473     7.074
   410   1 h        0.804     0.336     0.622     1.239
   411   1 h        0.804     0.335     0.624     1.240
   412   8 o        1.610    -0.644    26.269     6.917
   413   1 h        0.805     0.328     0.642     1.259
   414   1 h        0.805     0.338     0.618     1.234
   415   8 o        1.607    -0.681    27.214     7.041
   416   1 h        0.803     0.358     0.570     1.186
   417   1 h        0.804     0.335     0.625     1.242
   418   8 o        1.605    -0.701    27.748     7.109
   419   1 h        0.803     0.334     0.627     1.244
   420   1 h        0.803     0.342     0.608     1.224
   421   8 o        1.609    -0.677    27.100     7.026
   422   1 h        0.805     0.337     0.619     1.236
   423   1 h        0.803     0.341     0.611     1.228
   424   8 o        1.608    -0.687    27.363     7.060
   425   1 h        0.804     0.352     0.583     1.199
   426   1 h        0.805     0.318     0.671     1.286
   427   8 o        1.605    -0.707    27.897     7.128
   428   1 h        0.803     0.334     0.627     1.244
   429   1 h        0.803     0.348     0.593     1.210
   430   8 o        1.609    -0.677    27.108     7.027
   431   1 h        0.804     0.344     0.602     1.219
   432   1 h        0.805     0.329     0.639     1.256
   433   8 o        1.608    -0.653    26.504     6.948
   434   1 h        0.803     0.327     0.645     1.262
   435   1 h        0.805     0.324     0.653     1.269
   436   8 o        1.605    -0.690    27.448     7.071
   437   1 h        0.803     0.355     0.576     1.193
   438   1 h        0.802     0.334     0.628     1.244
   439   8 o        1.607    -0.689    27.416     7.067
   440   1 h        0.803     0.353     0.581     1.197
   441   1 h        0.804     0.326     0.647     1.264
   442   8 o        1.609    -0.671    26.943     7.006
   443   1 h        0.805     0.321     0.660     1.276
   444   1 h        0.804     0.344     0.603     1.219
   445   8 o        1.607    -0.701    27.744     7.109
   446   1 h        0.802     0.345     0.601     1.218
   447   1 h        0.804     0.338     0.617     1.234
   448   8 o        1.609    -0.673    26.989     7.012
   449   1 h        0.804     0.344     0.603     1.220
   450   1 h        0.804     0.331     0.634     1.251
   451   8 o        1.606    -0.686    27.352     7.058
   452   1 h        0.805     0.325     0.651     1.268
   453   1 h        0.802     0.359     0.567     1.183
   454   8 o        1.606    -0.698    27.670     7.099
   455   1 h        0.802     0.364     0.557     1.172
   456   1 h        0.804     0.322     0.658     1.274
   457   8 o        1.608    -0.665    26.807     6.988
   458   1 h        0.804     0.329     0.639     1.256
   459   1 h        0.804     0.348     0.593     1.210
   460   8 o        1.607    -0.670    26.924     7.003
   461   1 h        0.802     0.362     0.562     1.178
   462   1 h        0.805     0.353     0.582     1.199
   463   8 o        1.607    -0.677    27.110     7.027
   464   1 h        0.803     0.338     0.616     1.233
   465   1 h        0.804     0.329     0.641     1.257
   466   8 o        1.608    -0.669    26.888     6.998
   467   1 h        0.803     0.354     0.578     1.195
   468   1 h        0.806     0.315     0.677     1.292
   469   8 o        1.607    -0.683    27.265     7.047
   470   1 h        0.803     0.362     0.561     1.176
   471   1 h        0.804     0.329     0.641     1.258
   472   8 o        1.608    -0.686    27.350     7.058
   473   1 h        0.804     0.320     0.664     1.280
   474   1 h        0.804     0.350     0.588     1.204
   475   8 o        1.608    -0.682    27.244     7.045
   476   1 h        0.805     0.337     0.621     1.238
   477   1 h        0.803     0.344     0.603     1.220
   478   8 o        1.606    -0.666    26.834     6.991
   479   1 h        0.805     0.319     0.666     1.282
   480   1 h        0.801     0.359     0.568     1.184
   481   8 o        1.610    -0.652    26.477     6.945
   482   1 h        0.805     0.335     0.624     1.241
   483   1 h        0.805     0.325     0.649     1.265
   484   8 o        1.605    -0.688    27.401     7.065
   485   1 h        0.803     0.332     0.633     1.250
   486   1 h        0.803     0.351     0.587     1.204
   487   8 o        1.606    -0.676    27.089     7.024
   488   1 h        0.803     0.334     0.626     1.243
   489   1 h        0.803     0.336     0.623     1.240
   490   8 o        1.607    -0.667    26.840     6.992
   491   1 h        0.805     0.329     0.640     1.256
   492   1 h        0.803     0.349     0.592     1.209
   493   8 o        1.608    -0.672    26.967     7.009
   494   1 h        0.803     0.345     0.599     1.216
   495   1 h        0.804     0.317     0.671     1.286
   496   8 o        1.606    -0.681    27.216     7.041
   497   1 h        0.801     0.362     0.561     1.177
   498   1 h        0.806     0.309     0.695     1.310
   499   8 o        1.608    -0.683    27.254     7.046
   500   1 h        0.804     0.342     0.607     1.224
   501   1 h        0.805     0.330     0.638     1.255
   502   8 o        1.609    -0.663    26.756     6.981
   503   1 h        0.805     0.329     0.640     1.257
   504   1 h        0.805     0.333     0.629     1.245
   505   8 o        1.607    -0.690    27.455     7.072
   506   1 h        0.804     0.343     0.605     1.222
   507   1 h        0.803     0.345     0.600     1.216
   508   8 o        1.608    -0.679    27.166     7.034
   509   1 h        0.804     0.320     0.664     1.280
   510   1 h        0.803     0.352     0.584     1.201
   511   8 o        1.609    -0.654    26.510     6.949
   512   1 h        0.803     0.351     0.587     1.203
   513   1 h        0.806     0.317     0.672     1.288
   514   8 o        1.609    -0.672    26.976     7.010
   515   1 h        0.804     0.328     0.642     1.258
   516   1 h        0.804     0.345     0.600     1.217
   517   8 o        1.607    -0.704    27.814     7.118
   518   1 h        0.803     0.341     0.610     1.227
   519   1 h        0.804     0.349     0.589     1.206
   520   8 o        1.608    -0.672    26.984     7.011
   521   1 h        0.803     0.344     0.602     1.219
   522   1 h        0.805     0.328     0.642     1.258
   523   8 o        1.608    -0.661    26.699     6.974
   524   1 h        0.805     0.313     0.683     1.298
   525   1 h        0.803     0.349     0.592     1.208
   526   8 o        1.609    -0.636    26.053     6.889
   527   1 h        0.805     0.313     0.683     1.298
   528   1 h        0.803     0.349     0.591     1.208
   529   8 o        1.611    -0.650    26.402     6.935
   530   1 h        0.805     0.321     0.661     1.277
   531   1 h        0.805     0.326     0.647     1.263

 Mol. C6AA /au·bohr⁶  :    1428571.718234
 Mol. C8AA /au·bohr⁸  :   25905680.199272
 Mol. α(0) /au        :       1680.124339


Wiberg/Mayer (AO) data.
largest (>0.10) Wiberg bond orders for each atom

 ---------------------------------------------------------------------------
     #   Z sym  total        # sym  WBO       # sym  WBO       # sym  WBO
 ---------------------------------------------------------------------------
     1   8 o    1.871 --     2 h    0.839     3 h    0.816
     2   1 h    0.881 --     1 o    0.839
     3   1 h    0.882 --     1 o    0.816
     4   8 o    1.870 --     5 h    0.877     6 h    0.823
     5   1 h    0.895 --     4 o    0.877
     6   1 h    0.876 --     4 o    0.823
     7   8 o    1.822 --     8 h    0.833     9 h    0.821
     8   1 h    0.883 --     7 o    0.833
     9   1 h    0.886 --     7 o    0.821
    10   8 o    1.824 --    11 h    0.847    12 h    0.821
    11   1 h    0.900 --    10 o    0.847
    12   1 h    0.890 --    10 o    0.821
    13   8 o    1.863 --    14 h    0.845    15 h    0.821
    14   1 h    0.891 --    13 o    0.845
    15   1 h    0.889 --    13 o    0.821
    16   8 o    1.863 --    17 h    0.865    18 h    0.801
    17   1 h    0.891 --    16 o    0.865
    18   1 h    0.869 --    16 o    0.801
    19   8 o    1.846 --    20 h    0.837    21 h    0.797
    20   1 h    0.890 --    19 o    0.837
    21   1 h    0.877 --    19 o    0.797
    22   8 o    1.867 --    24 h    0.840    23 h    0.815
    23   1 h    0.880 --    22 o    0.815
    24   1 h    0.895 --    22 o    0.840
    25   8 o    1.854 --    26 h    0.825    27 h    0.787
    26   1 h    0.888 --    25 o    0.825
    27   1 h    0.869 --    25 o    0.787
    28   8 o    1.877 --    30 h    0.836    29 h    0.821
    29   1 h    0.880 --    28 o    0.821
    30   1 h    0.884 --    28 o    0.836
    31   8 o    1.769 --    33 h    0.822    32 h    0.818
    32   1 h    0.886 --    31 o    0.818
    33   1 h    0.889 --    31 o    0.822
    34   8 o    1.881 --    36 h    0.837    35 h    0.837
    35   1 h    0.881 --    34 o    0.837
    36   1 h    0.889 --    34 o    0.837
    37   8 o    1.860 --    39 h    0.818    38 h    0.816
    38   1 h    0.881 --    37 o    0.816
    39   1 h    0.887 --    37 o    0.818
    40   8 o    1.884 --    41 h    0.830    42 h    0.804
    41   1 h    0.887 --    40 o    0.830
    42   1 h    0.878 --    40 o    0.804
    43   8 o    1.827 --    45 h    0.848    44 h    0.812
    44   1 h    0.881 --    43 o    0.812
    45   1 h    0.893 --    43 o    0.848
    46   8 o    1.815 --    47 h    0.868    48 h    0.853
    47   1 h    0.896 --    46 o    0.868
    48   1 h    0.882 --    46 o    0.853
    49   8 o    1.855 --    50 h    0.822    51 h    0.807
    50   1 h    0.891 --    49 o    0.822
    51   1 h    0.877 --    49 o    0.807
    52   8 o    1.869 --    53 h    0.854    54 h    0.830
    53   1 h    0.888 --    52 o    0.854
    54   1 h    0.889 --    52 o    0.830
    55   8 o    1.846 --    56 h    0.821    57 h    0.804
    56   1 h    0.891 --    55 o    0.821
    57   1 h    0.875 --    55 o    0.804
    58   8 o    1.831 --    60 h    0.851    59 h    0.842
    59   1 h    0.884 --    58 o    0.842
    60   1 h    0.895 --    58 o    0.851
    61   8 o    1.836 --    62 h    0.863    63 h    0.836
    62   1 h    0.890 --    61 o    0.863
    63   1 h    0.880 --    61 o    0.836
    64   8 o    1.888 --    66 h    0.823    65 h    0.817
    65   1 h    0.887 --    64 o    0.817
    66   1 h    0.887 --    64 o    0.823
    67   8 o    1.845 --    69 h    0.883    68 h    0.842
    68   1 h    0.884 --    67 o    0.842
    69   1 h    0.894 --    67 o    0.883
    70   8 o    1.911 --    72 h    0.859    71 h    0.808
    71   1 h    0.885 --    70 o    0.808
    72   1 h    0.882 --    70 o    0.859
    73   8 o    1.858 --    74 h    0.843    75 h    0.836
    74   1 h    0.882 --    73 o    0.843
    75   1 h    0.891 --    73 o    0.836
    76   8 o    1.807 --    78 h    0.836    77 h    0.830
    77   1 h    0.894 --    76 o    0.830
    78   1 h    0.890 --    76 o    0.836
    79   8 o    1.845 --    80 h    0.898    81 h    0.783
    80   1 h    0.905 --    79 o    0.898
    81   1 h    0.867 --    79 o    0.783
    82   8 o    1.854 --    84 h    0.869    83 h    0.804
    83   1 h    0.875 --    82 o    0.804
    84   1 h    0.898 --    82 o    0.869
    85   8 o    1.855 --    86 h    0.853    87 h    0.843
    86   1 h    0.886 --    85 o    0.853
    87   1 h    0.881 --    85 o    0.843
    88   8 o    1.841 --    90 h    0.845    89 h    0.841
    89   1 h    0.896 --    88 o    0.841
    90   1 h    0.889 --    88 o    0.845
    91   8 o    1.852 --    93 h    0.824    92 h    0.801
    92   1 h    0.868 --    91 o    0.801
    93   1 h    0.891 --    91 o    0.824
    94   8 o    1.839 --    95 h    0.854    96 h    0.847
    95   1 h    0.885 --    94 o    0.854
    96   1 h    0.887 --    94 o    0.847
    97   8 o    1.858 --    98 h    0.853    99 h    0.813
    98   1 h    0.889 --    97 o    0.853
    99   1 h    0.880 --    97 o    0.813
   100   8 o    1.854 --   101 h    0.836   102 h    0.790
   101   1 h    0.874 --   100 o    0.836
   102   1 h    0.880 --   100 o    0.790
   103   8 o    1.834 --   104 h    0.830   105 h    0.807
   104   1 h    0.890 --   103 o    0.830
   105   1 h    0.888 --   103 o    0.807
   106   8 o    1.829 --   107 h    0.897   108 h    0.801
   107   1 h    0.903 --   106 o    0.897
   108   1 h    0.877 --   106 o    0.801
   109   8 o    1.827 --   110 h    0.862   111 h    0.775
   110   1 h    0.896 --   109 o    0.862
   111   1 h    0.872 --   109 o    0.775
   112   8 o    1.888 --   113 h    0.831   114 h    0.822
   113   1 h    0.884 --   112 o    0.831
   114   1 h    0.874 --   112 o    0.822
   115   8 o    1.889 --   117 h    0.851   116 h    0.802
   116   1 h    0.869 --   115 o    0.802
   117   1 h    0.882 --   115 o    0.851
   118   8 o    1.844 --   119 h    0.833   120 h    0.811
   119   1 h    0.889 --   118 o    0.833
   120   1 h    0.886 --   118 o    0.811
   121   8 o    1.883 --   123 h    0.849   122 h    0.805
   122   1 h    0.890 --   121 o    0.805
   123   1 h    0.894 --   121 o    0.849
   124   8 o    1.849 --   125 h    0.844   126 h    0.793
   125   1 h    0.890 --   124 o    0.844
   126   1 h    0.873 --   124 o    0.793
   127   8 o    1.833 --   129 h    0.890   128 h    0.823
   128   1 h    0.876 --   127 o    0.823
   129   1 h    0.902 --   127 o    0.890
   130   8 o    1.849 --   132 h    0.828   131 h    0.805
   131   1 h    0.875 --   130 o    0.805
   132   1 h    0.891 --   130 o    0.828
   133   8 o    1.803 --   135 h    0.840   134 h    0.816
   134   1 h    0.887 --   133 o    0.816
   135   1 h    0.894 --   133 o    0.840
   136   8 o    1.833 --   138 h    0.852   137 h    0.792
   137   1 h    0.880 --   136 o    0.792
   138   1 h    0.893 --   136 o    0.852
   139   8 o    1.857 --   141 h    0.820   140 h    0.820
   140   1 h    0.889 --   139 o    0.820
   141   1 h    0.886 --   139 o    0.820
   142   8 o    1.806 --   143 h    0.829   144 h    0.812
   143   1 h    0.888 --   142 o    0.829
   144   1 h    0.884 --   142 o    0.812
   145   8 o    1.851 --   147 h    0.848   146 h    0.843
   146   1 h    0.888 --   145 o    0.843
   147   1 h    0.891 --   145 o    0.848
   148   8 o    1.857 --   149 h    0.838   150 h    0.809
   149   1 h    0.890 --   148 o    0.838
   150   1 h    0.880 --   148 o    0.809
   151   8 o    1.843 --   152 h    0.894   153 h    0.847
   152   1 h    0.897 --   151 o    0.894
   153   1 h    0.882 --   151 o    0.847
   154   8 o    1.824 --   155 h    0.868   156 h    0.824
   155   1 h    0.895 --   154 o    0.868
   156   1 h    0.882 --   154 o    0.824
   157   8 o    1.823 --   159 h    0.849   158 h    0.837
   158   1 h    0.886 --   157 o    0.837
   159   1 h    0.890 --   157 o    0.849
   160   8 o    1.856 --   162 h    0.831   161 h    0.826
   161   1 h    0.884 --   160 o    0.826
   162   1 h    0.883 --   160 o    0.831
   163   8 o    1.860 --   165 h    0.820   164 h    0.794
   164   1 h    0.876 --   163 o    0.794
   165   1 h    0.888 --   163 o    0.820
   166   8 o    1.895 --   167 h    0.861   168 h    0.819
   167   1 h    0.896 --   166 o    0.861
   168   1 h    0.880 --   166 o    0.819
   169   8 o    1.827 --   170 h    0.845   171 h    0.839
   170   1 h    0.888 --   169 o    0.845
   171   1 h    0.887 --   169 o    0.839
   172   8 o    1.871 --   174 h    0.834   173 h    0.822
   173   1 h    0.885 --   172 o    0.822
   174   1 h    0.888 --   172 o    0.834
   175   8 o    1.855 --   177 h    0.839   176 h    0.836
   176   1 h    0.884 --   175 o    0.836
   177   1 h    0.899 --   175 o    0.839
   178   8 o    1.926 --   179 h    0.827   180 h    0.809
   179   1 h    0.873 --   178 o    0.827
   180   1 h    0.885 --   178 o    0.809
   181   8 o    1.825 --   183 h    0.834   182 h    0.820
   182   1 h    0.883 --   181 o    0.820
   183   1 h    0.896 --   181 o    0.834
   184   8 o    1.880 --   186 h    0.833   185 h    0.827
   185   1 h    0.875 --   184 o    0.827
   186   1 h    0.889 --   184 o    0.833
   187   8 o    1.871 --   188 h    0.854   189 h    0.837
   188   1 h    0.892 --   187 o    0.854
   189   1 h    0.886 --   187 o    0.837
   190   8 o    1.848 --   191 h    0.855   192 h    0.813
   191   1 h    0.898 --   190 o    0.855
   192   1 h    0.887 --   190 o    0.813
   193   8 o    1.860 --   195 h    0.827   194 h    0.823
   194   1 h    0.884 --   193 o    0.823
   195   1 h    0.880 --   193 o    0.827
   196   8 o    1.879 --   198 h    0.826   197 h    0.801
   197   1 h    0.880 --   196 o    0.801
   198   1 h    0.885 --   196 o    0.826
   199   8 o    1.851 --   200 h    0.805   201 h    0.804
   200   1 h    0.881 --   199 o    0.805
   201   1 h    0.874 --   199 o    0.804
   202   8 o    1.865 --   203 h    0.856   204 h    0.810
   203   1 h    0.892 --   202 o    0.856
   204   1 h    0.869 --   202 o    0.810
   205   8 o    1.838 --   206 h    0.884   207 h    0.839
   206   1 h    0.896 --   205 o    0.884
   207   1 h    0.883 --   205 o    0.839
   208   8 o    1.851 --   210 h    0.835   209 h    0.809
   209   1 h    0.879 --   208 o    0.809
   210   1 h    0.882 --   208 o    0.835
   211   8 o    1.866 --   213 h    0.810   212 h    0.795
   212   1 h    0.870 --   211 o    0.795
   213   1 h    0.884 --   211 o    0.810
   214   8 o    1.837 --   216 h    0.847   215 h    0.834
   215   1 h    0.886 --   214 o    0.834
   216   1 h    0.893 --   214 o    0.847
   217   8 o    1.838 --   219 h    0.818   218 h    0.797
   218   1 h    0.872 --   217 o    0.797
   219   1 h    0.887 --   217 o    0.818
   220   8 o    1.870 --   221 h    0.877   222 h    0.816
   221   1 h    0.894 --   220 o    0.877
   222   1 h    0.877 --   220 o    0.816
   223   8 o    1.860 --   224 h    0.811   225 h    0.793
   224   1 h    0.875 --   223 o    0.811
   225   1 h    0.877 --   223 o    0.793
   226   8 o    1.871 --   228 h    0.820   227 h    0.818
   227   1 h    0.875 --   226 o    0.818
   228   1 h    0.875 --   226 o    0.820
   229   8 o    1.837 --   230 h    0.840   231 h    0.826
   230   1 h    0.884 --   229 o    0.840
   231   1 h    0.889 --   229 o    0.826
   232   8 o    1.842 --   233 h    0.859   234 h    0.827
   233   1 h    0.897 --   232 o    0.859
   234   1 h    0.891 --   232 o    0.827
   235   8 o    1.818 --   237 h    0.884   236 h    0.798
   236   1 h    0.876 --   235 o    0.798
   237   1 h    0.898 --   235 o    0.884
   238   8 o    1.854 --   239 h    0.830   240 h    0.796
   239   1 h    0.890 --   238 o    0.830
   240   1 h    0.876 --   238 o    0.796
   241   8 o    1.841 --   243 h    0.832   242 h    0.803
   242   1 h    0.889 --   241 o    0.803
   243   1 h    0.874 --   241 o    0.832
   244   8 o    1.857 --   246 h    0.895   245 h    0.815
   245   1 h    0.886 --   244 o    0.815
   246   1 h    0.906 --   244 o    0.895
   247   8 o    1.852 --   248 h    0.812   249 h    0.791
   248   1 h    0.887 --   247 o    0.812
   249   1 h    0.878 --   247 o    0.791
   250   8 o    1.888 --   252 h    0.811   251 h    0.788
   251   1 h    0.873 --   250 o    0.788
   252   1 h    0.888 --   250 o    0.811
   253   8 o    1.835 --   255 h    0.896   254 h    0.793
   254   1 h    0.880 --   253 o    0.793
   255   1 h    0.904 --   253 o    0.896
   256   8 o    1.832 --   257 h    0.846   258 h    0.808
   257   1 h    0.899 --   256 o    0.846
   258   1 h    0.875 --   256 o    0.808
   259   8 o    1.895 --   261 h    0.818   260 h    0.808
   260   1 h    0.871 --   259 o    0.808
   261   1 h    0.891 --   259 o    0.818
   262   8 o    1.827 --   263 h    0.900   264 h    0.808
   263   1 h    0.905 --   262 o    0.900
   264   1 h    0.881 --   262 o    0.808
   265   8 o    1.831 --   266 h    0.838   267 h    0.834
   266   1 h    0.886 --   265 o    0.838
   267   1 h    0.890 --   265 o    0.834
   268   8 o    1.819 --   269 h    0.842   270 h    0.807
   269   1 h    0.888 --   268 o    0.842
   270   1 h    0.879 --   268 o    0.807
   271   8 o    1.846 --   272 h    0.868   273 h    0.827
   272   1 h    0.890 --   271 o    0.868
   273   1 h    0.885 --   271 o    0.827
   274   8 o    1.844 --   275 h    0.899   276 h    0.851
   275   1 h    0.901 --   274 o    0.899
   276   1 h    0.886 --   274 o    0.851
   277   8 o    1.842 --   279 h    0.889   278 h    0.790
   278   1 h    0.880 --   277 o    0.790
   279   1 h    0.898 --   277 o    0.889
   280   8 o    1.855 --   282 h    0.865   281 h    0.819
   281   1 h    0.883 --   280 o    0.819
   282   1 h    0.886 --   280 o    0.865
   283   8 o    1.840 --   284 h    0.897   285 h    0.823
   284   1 h    0.905 --   283 o    0.897
   285   1 h    0.886 --   283 o    0.823
   286   8 o    1.846 --   288 h    0.864   287 h    0.805
   287   1 h    0.887 --   286 o    0.805
   288   1 h    0.890 --   286 o    0.864
   289   8 o    1.844 --   290 h    0.818   291 h    0.777
   290   1 h    0.895 --   289 o    0.818
   291   1 h    0.875 --   289 o    0.777
   292   8 o    1.824 --   293 h    0.868   294 h    0.851
   293   1 h    0.890 --   292 o    0.868
   294   1 h    0.887 --   292 o    0.851
   295   8 o    1.861 --   297 h    0.828   296 h    0.810
   296   1 h    0.876 --   295 o    0.810
   297   1 h    0.880 --   295 o    0.828
   298   8 o    1.850 --   299 h    0.831   300 h    0.821
   299   1 h    0.881 --   298 o    0.831
   300   1 h    0.880 --   298 o    0.821
   301   8 o    1.837 --   303 h    0.883   302 h    0.781
   302   1 h    0.872 --   301 o    0.781
   303   1 h    0.897 --   301 o    0.883
   304   8 o    1.855 --   306 h    0.841   305 h    0.809
   305   1 h    0.876 --   304 o    0.809
   306   1 h    0.894 --   304 o    0.841
   307   8 o    1.839 --   309 h    0.862   308 h    0.817
   308   1 h    0.882 --   307 o    0.817
   309   1 h    0.892 --   307 o    0.862
   310   8 o    1.853 --   311 h    0.863   312 h    0.829
   311   1 h    0.888 --   310 o    0.863
   312   1 h    0.880 --   310 o    0.829
   313   8 o    1.850 --   314 h    0.833   315 h    0.828
   314   1 h    0.885 --   313 o    0.833
   315   1 h    0.894 --   313 o    0.828
   316   8 o    1.840 --   318 h    0.848   317 h    0.816
   317   1 h    0.879 --   316 o    0.816
   318   1 h    0.898 --   316 o    0.848
   319   8 o    1.836 --   321 h    0.857   320 h    0.836
   320   1 h    0.879 --   319 o    0.836
   321   1 h    0.896 --   319 o    0.857
   322   8 o    1.883 --   324 h    0.857   323 h    0.797
   323   1 h    0.866 --   322 o    0.797
   324   1 h    0.889 --   322 o    0.857
   325   8 o    1.812 --   327 h    0.842   326 h    0.828
   326   1 h    0.886 --   325 o    0.828
   327   1 h    0.888 --   325 o    0.842
   328   8 o    1.830 --   329 h    0.891   330 h    0.780
   329   1 h    0.901 --   328 o    0.891
   330   1 h    0.872 --   328 o    0.780
   331   8 o    1.857 --   333 h    0.866   332 h    0.805
   332   1 h    0.879 --   331 o    0.805
   333   1 h    0.892 --   331 o    0.866
   334   8 o    1.835 --   336 h    0.859   335 h    0.812
   335   1 h    0.879 --   334 o    0.812
   336   1 h    0.895 --   334 o    0.859
   337   8 o    1.835 --   338 h    0.886   339 h    0.785
   338   1 h    0.901 --   337 o    0.886
   339   1 h    0.871 --   337 o    0.785
   340   8 o    1.869 --   342 h    0.856   341 h    0.839
   341   1 h    0.886 --   340 o    0.839
   342   1 h    0.896 --   340 o    0.856
   343   8 o    1.813 --   344 h    0.882   345 h    0.841
   344   1 h    0.898 --   343 o    0.882
   345   1 h    0.887 --   343 o    0.841
   346   8 o    1.840 --   348 h    0.827   347 h    0.801
   347   1 h    0.875 --   346 o    0.801
   348   1 h    0.886 --   346 o    0.827
   349   8 o    1.817 --   351 h    0.866   350 h    0.798
   350   1 h    0.876 --   349 o    0.798
   351   1 h    0.904 --   349 o    0.866
   352   8 o    1.873 --   354 h    0.842   353 h    0.818
   353   1 h    0.891 --   352 o    0.818
   354   1 h    0.895 --   352 o    0.842
   355   8 o    1.837 --   356 h    0.842   357 h    0.841
   356   1 h    0.889 --   355 o    0.842
   357   1 h    0.883 --   355 o    0.841
   358   8 o    1.814 --   360 h    0.890   359 h    0.804
   359   1 h    0.877 --   358 o    0.804
   360   1 h    0.901 --   358 o    0.890
   361   8 o    1.823 --   363 h    0.902   362 h    0.819
   362   1 h    0.880 --   361 o    0.819
   363   1 h    0.905 --   361 o    0.902
   364   8 o    1.857 --   366 h    0.822   365 h    0.806
   365   1 h    0.873 --   364 o    0.806
   366   1 h    0.886 --   364 o    0.822
   367   8 o    1.845 --   369 h    0.902   368 h    0.812
   368   1 h    0.879 --   367 o    0.812
   369   1 h    0.905 --   367 o    0.902
   370   8 o    1.847 --   372 h    0.826   371 h    0.818
   371   1 h    0.890 --   370 o    0.818
   372   1 h    0.883 --   370 o    0.826
   373   8 o    1.828 --   375 h    0.870   374 h    0.809
   374   1 h    0.875 --   373 o    0.809
   375   1 h    0.893 --   373 o    0.870
   376   8 o    1.849 --   378 h    0.873   377 h    0.867
   377   1 h    0.883 --   376 o    0.867
   378   1 h    0.886 --   376 o    0.873
   379   8 o    1.791 --   381 h    0.838   380 h    0.830
   380   1 h    0.894 --   379 o    0.830
   381   1 h    0.889 --   379 o    0.838
   382   8 o    1.856 --   384 h    0.892   383 h    0.816
   383   1 h    0.873 --   382 o    0.816
   384   1 h    0.897 --   382 o    0.892
   385   8 o    1.883 --   387 h    0.817   386 h    0.817
   386   1 h    0.881 --   385 o    0.817
   387   1 h    0.880 --   385 o    0.817
   388   8 o    1.884 --   390 h    0.839   389 h    0.813
   389   1 h    0.880 --   388 o    0.813
   390   1 h    0.888 --   388 o    0.839
   391   8 o    1.825 --   392 h    0.863   393 h    0.843
   392   1 h    0.890 --   391 o    0.863
   393   1 h    0.887 --   391 o    0.843
   394   8 o    1.883 --   396 h    0.820   395 h    0.807
   395   1 h    0.873 --   394 o    0.807
   396   1 h    0.891 --   394 o    0.820
   397   8 o    1.859 --   399 h    0.875   398 h    0.806
   398   1 h    0.882 --   397 o    0.806
   399   1 h    0.896 --   397 o    0.875
   400   8 o    1.885 --   402 h    0.841   401 h    0.807
   401   1 h    0.874 --   400 o    0.807
   402   1 h    0.889 --   400 o    0.841
   403   8 o    1.845 --   404 h    0.898   405 h    0.836
   404   1 h    0.902 --   403 o    0.898
   405   1 h    0.883 --   403 o    0.836
   406   8 o    1.835 --   408 h    0.850   407 h    0.840
   407   1 h    0.884 --   406 o    0.840
   408   1 h    0.888 --   406 o    0.850
   409   8 o    1.828 --   411 h    0.833   410 h    0.828
   410   1 h    0.887 --   409 o    0.828
   411   1 h    0.887 --   409 o    0.833
   412   8 o    1.858 --   413 h    0.868   414 h    0.852
   413   1 h    0.892 --   412 o    0.868
   414   1 h    0.886 --   412 o    0.852
   415   8 o    1.886 --   417 h    0.833   416 h    0.799
   416   1 h    0.872 --   415 o    0.799
   417   1 h    0.888 --   415 o    0.833
   418   8 o    1.824 --   419 h    0.814   420 h    0.803
   419   1 h    0.888 --   418 o    0.814
   420   1 h    0.883 --   418 o    0.803
   421   8 o    1.843 --   422 h    0.849   423 h    0.830
   422   1 h    0.886 --   421 o    0.849
   423   1 h    0.884 --   421 o    0.830
   424   8 o    1.810 --   426 h    0.862   425 h    0.826
   425   1 h    0.876 --   424 o    0.826
   426   1 h    0.899 --   424 o    0.862
   427   8 o    1.862 --   428 h    0.799   429 h    0.795
   428   1 h    0.888 --   427 o    0.799
   429   1 h    0.879 --   427 o    0.795
   430   8 o    1.815 --   432 h    0.867   431 h    0.829
   431   1 h    0.881 --   430 o    0.829
   432   1 h    0.891 --   430 o    0.867
   433   8 o    1.854 --   435 h    0.871   434 h    0.826
   434   1 h    0.893 --   433 o    0.826
   435   1 h    0.895 --   433 o    0.871
   436   8 o    1.863 --   438 h    0.815   437 h    0.806
   437   1 h    0.874 --   436 o    0.806
   438   1 h    0.888 --   436 o    0.815
   439   8 o    1.836 --   441 h    0.837   440 h    0.820
   440   1 h    0.875 --   439 o    0.820
   441   1 h    0.893 --   439 o    0.837
   442   8 o    1.810 --   443 h    0.876   444 h    0.837
   443   1 h    0.897 --   442 o    0.876
   444   1 h    0.882 --   442 o    0.837
   445   8 o    1.837 --   447 h    0.837   446 h    0.804
   446   1 h    0.881 --   445 o    0.804
   447   1 h    0.886 --   445 o    0.837
   448   8 o    1.868 --   450 h    0.828   449 h    0.822
   449   1 h    0.882 --   448 o    0.822
   450   1 h    0.890 --   448 o    0.828
   451   8 o    1.849 --   452 h    0.859   453 h    0.782
   452   1 h    0.895 --   451 o    0.859
   453   1 h    0.871 --   451 o    0.782
   454   8 o    1.830 --   456 h    0.852   455 h    0.789
   455   1 h    0.867 --   454 o    0.789
   456   1 h    0.896 --   454 o    0.852
   457   8 o    1.838 --   458 h    0.852   459 h    0.841
   458   1 h    0.892 --   457 o    0.852
   459   1 h    0.879 --   457 o    0.841
   460   8 o    1.912 --   462 h    0.841   461 h    0.790
   461   1 h    0.869 --   460 o    0.790
   462   1 h    0.876 --   460 o    0.841
   463   8 o    1.858 --   465 h    0.828   464 h    0.805
   464   1 h    0.885 --   463 o    0.805
   465   1 h    0.892 --   463 o    0.828
   466   8 o    1.834 --   468 h    0.893   467 h    0.802
   467   1 h    0.874 --   466 o    0.802
   468   1 h    0.901 --   466 o    0.893
   469   8 o    1.841 --   471 h    0.844   470 h    0.816
   470   1 h    0.869 --   469 o    0.816
   471   1 h    0.892 --   469 o    0.844
   472   8 o    1.810 --   473 h    0.858   474 h    0.825
   473   1 h    0.898 --   472 o    0.858
   474   1 h    0.877 --   472 o    0.825
   475   8 o    1.834 --   476 h    0.848   477 h    0.812
   476   1 h    0.887 --   475 o    0.848
   477   1 h    0.882 --   475 o    0.812
   478   8 o    1.863 --   479 h    0.882   480 h    0.778
   479   1 h    0.898 --   478 o    0.882
   480   1 h    0.871 --   478 o    0.778
   481   8 o    1.837 --   483 h    0.876   482 h    0.856
   482   1 h    0.888 --   481 o    0.856
   483   1 h    0.894 --   481 o    0.876
   484   8 o    1.861 --   485 h    0.828   486 h    0.794
   485   1 h    0.890 --   484 o    0.828
   486   1 h    0.877 --   484 o    0.794
   487   8 o    1.853 --   489 h    0.836   488 h    0.825
   488   1 h    0.888 --   487 o    0.825
   489   1 h    0.887 --   487 o    0.836
   490   8 o    1.871 --   491 h    0.860   492 h    0.792
   491   1 h    0.892 --   490 o    0.860
   492   1 h    0.878 --   490 o    0.792
   493   8 o    1.842 --   495 h    0.854   494 h    0.811
   494   1 h    0.881 --   493 o    0.811
   495   1 h    0.899 --   493 o    0.854
   496   8 o    1.830 --   498 h    0.900   497 h    0.777
   497   1 h    0.869 --   496 o    0.777
   498   1 h    0.905 --   496 o    0.900
   499   8 o    1.811 --   501 h    0.869   500 h    0.822
   500   1 h    0.883 --   499 o    0.822
   501   1 h    0.891 --   499 o    0.869
   502   8 o    1.821 --   503 h    0.859   504 h    0.858
   503   1 h    0.892 --   502 o    0.859
   504   1 h    0.889 --   502 o    0.858
   505   8 o    1.861 --   506 h    0.829   507 h    0.797
   506   1 h    0.882 --   505 o    0.829
   507   1 h    0.881 --   505 o    0.797
   508   8 o    1.837 --   509 h    0.860   510 h    0.813
   509   1 h    0.898 --   508 o    0.860
   510   1 h    0.876 --   508 o    0.813
   511   8 o    1.837 --   513 h    0.895   512 h    0.830
   512   1 h    0.877 --   511 o    0.830
   513   1 h    0.900 --   511 o    0.895
   514   8 o    1.836 --   515 h    0.862   516 h    0.837
   515   1 h    0.892 --   514 o    0.862
   516   1 h    0.881 --   514 o    0.837
   517   8 o    1.828 --   519 h    0.825   518 h    0.823
   518   1 h    0.884 --   517 o    0.823
   519   1 h    0.878 --   517 o    0.825
   520   8 o    1.836 --   522 h    0.850   521 h    0.829
   521   1 h    0.881 --   520 o    0.829
   522   1 h    0.892 --   520 o    0.850
   523   8 o    1.830 --   524 h    0.891   525 h    0.817
   524   1 h    0.902 --   523 o    0.891
   525   1 h    0.878 --   523 o    0.817
   526   8 o    1.864 --   527 h    0.897   528 h    0.835
   527   1 h    0.902 --   526 o    0.897
   528   1 h    0.878 --   526 o    0.835
   529   8 o    1.797 --   530 h    0.888   531 h    0.882
   530   1 h    0.897 --   529 o    0.888
   531   1 h    0.893 --   529 o    0.882
 ---------------------------------------------------------------------------

Topologies differ in total number of bonds
Writing topology from bond orders to xtbtopo.mol

molecular dipole:
                 x           y           z       tot (Debye)
 q only:       -0.288       4.651       2.541
   full:        1.107       5.397       2.495      15.372
molecular quadrupole (traceless):
                xx          xy          yy          xz          yz          zz
 q only:      133.780     -36.926     -83.938      -8.364     -46.358     -49.843
  q+dip:      165.108     -43.353    -109.676      -7.190     -68.025     -55.433
   full:      165.673     -43.514    -110.217      -8.290     -67.519     -55.455


           -------------------------------------------------
          | TOTAL ENERGY             -901.398678172725 Eh   |
          | GRADIENT NORM               0.105019492630 Eh/α |
          | HOMO-LUMO GAP               7.685479451636 eV   |
           -------------------------------------------------

------------------------------------------------------------------------
 * finished run on 2022/11/17 at 06:54:57.160     
------------------------------------------------------------------------
 total:
 * wall-time:     0 d,  0 h,  0 min,  7.985 sec
 *  cpu-time:     0 d,  0 h,  0 min, 13.221 sec
 * ratio c/w:     1.656 speedup
 SCF:
 * wall-time:     0 d,  0 h,  0 min,  7.460 sec
 *  cpu-time:     0 d,  0 h,  0 min, 12.220 sec
 * ratio c/w:     1.638 speedup

