      -----------------------------------------------------------      
     |                   =====================                   |     
     |                           x T B                           |     
     |                   =====================                   |     
     |                         S. Grimme                         |     
     |          Mulliken Center for Theoretical Chemistry        |     
     |                    University of Bonn                     |     
      -----------------------------------------------------------      

   * xtb version 6.5.1 (579679a) compiled by 'ehlert@majestix' on 2022-07-11

   xtb is free software: you can redistribute it and/or modify it under
   the terms of the GNU Lesser General Public License as published by
   the Free Software Foundation, either version 3 of the License, or
   (at your option) any later version.
   
   xtb is distributed in the hope that it will be useful,
   but WITHOUT ANY WARRANTY; without even the implied warranty of
   MERCHANTABILITY or FITNESS FOR A PARTICULAR PURPOSE.  See the
   GNU Lesser General Public License for more details.
   
   Cite this work as:
   * C. Bannwarth, E. Caldeweyher, S. Ehlert, A. Hansen, P. Pracht,
     J. Seibert, S. Spicher, S. Grimme, WIREs Comput. Mol. Sci., 2020, 11,
     e01493. DOI: 10.1002/wcms.1493
   
   for GFN2-xTB:
   * C. Bannwarth, S. Ehlert and S. Grimme., J. Chem. Theory Comput., 2019,
     15, 1652-1671. DOI: 10.1021/acs.jctc.8b01176
   for GFN1-xTB:
   * S. Grimme, C. Bannwarth, P. Shushkov, J. Chem. Theory Comput., 2017,
     13, 1989-2009. DOI: 10.1021/acs.jctc.7b00118
   for GFN0-xTB:
   * P. Pracht, E. Caldeweyher, S. Ehlert, S. Grimme, ChemRxiv, 2019, preprint.
     DOI: 10.26434/chemrxiv.8326202.v1
   for GFN-FF:
   * S. Spicher and S. Grimme, Angew. Chem. Int. Ed., 2020, 59, 15665-15673.
     DOI: 10.1002/anie.202004239
   
   for ALPB and GBSA implicit solvation:
   * S. Ehlert, M. Stahn, S. Spicher, S. Grimme, J. Chem. Theory Comput.,
     2021, 17, 4250-4261. DOI: 10.1021/acs.jctc.1c00471
   
   for DFT-D4:
   * E. Caldeweyher, C. Bannwarth and S. Grimme, J. Chem. Phys., 2017,
     147, 034112. DOI: 10.1063/1.4993215
   * E. Caldeweyher, S. Ehlert, A. Hansen, H. Neugebauer, S. Spicher,
     C. Bannwarth and S. Grimme, J. Chem. Phys., 2019, 150, 154122.
     DOI: 10.1063/1.5090222
   * E. Caldeweyher, J.-M. Mewes, S. Ehlert and S. Grimme, Phys. Chem. Chem. Phys.
     2020, 22, 8499-8512. DOI: 10.1039/D0CP00502A
   
   for sTDA-xTB:
   * S. Grimme and C. Bannwarth, J. Chem. Phys., 2016, 145, 054103.
     DOI: 10.1063/1.4959605
   
   in the mass-spec context:
   * V. Asgeirsson, C. Bauer and S. Grimme, Chem. Sci., 2017, 8, 4879.
     DOI: 10.1039/c7sc00601b
   * J. Koopman and S. Grimme, ACS Omega 2019, 4, 12, 15120-15133.
     DOI: 10.1021/acsomega.9b02011
   
   for metadynamics refer to:
   * S. Grimme, J. Chem. Theory Comput., 2019, 155, 2847-2862
     DOI: 10.1021/acs.jctc.9b00143
   
   for SPH calculations refer to:
   * S. Spicher and S. Grimme, J. Chem. Theory Comput., 2021, 17, 1701-1714
     DOI: 10.1021/acs.jctc.0c01306
   
   with help from (in alphabetical order)
   P. Atkinson, C. Bannwarth, F. Bohle, G. Brandenburg, E. Caldeweyher
   M. Checinski, S. Dohm, S. Ehlert, S. Ehrlich, I. Gerasimov, C. Hölzer
   A. Katbashev, J. Koopman, C. Lavigne, S. Lehtola, F. März, M. Müller,
   F. Musil, H. Neugebauer, J. Pisarek, C. Plett, P. Pracht, F. Pultar,
   J. Seibert, P. Shushkov, S. Spicher, M. Stahn, M. Steiner, T. Strunk,
   J. Stückrath, T. Rose, and J. Unsleber
   
 * started run on 2022/11/17 at 06:54:59.737     

           -------------------------------------------------
          |                Calculation Setup                |
           -------------------------------------------------

          program call               : xtb solvent_cluster.coord --gfn2 --sp --lmo --chrg 0
          hostname                   : cn0363
          coordinate file            : solvent_cluster.coord
          omp threads                :                     2

   ID    Z sym.   atoms
    1    8 o      1, 4, 7, 10, 13, 16, 19, 22, 25, 28, 31, 34, 37, 40, 43,
                  46, 49, 52, 55, 58, 61, 64, 67, 70, 73, 76, 79, 82, 85, 88,
                  91, 94, 97, 100, 103, 106, 109, 112, 115, 118, 121, 124,
                  127, 130, 133, 136, 139, 142, 145, 148, 151, 154, 157, 160,
                  163, 166, 169, 172, 175, 178, 181, 184, 187, 190, 193, 196,
                  199, 202, 205, 208, 211, 214, 217, 220, 223, 226, 229, 232,
                  235, 238, 241, 244, 247, 250, 253, 256, 259, 262, 265, 268,
                  271, 274, 277, 280, 283, 286, 289, 292, 295, 298, 301, 304,
                  307, 310, 313, 316, 319, 322, 325, 328, 331, 334, 337, 340,
                  343, 346, 349, 352, 355, 358, 361, 364, 367, 370, 373, 376,
                  379, 382, 385, 388, 391, 394, 397, 400, 403, 406, 409, 412,
                  415, 418, 421, 424, 427, 430, 433, 436, 439, 442, 445, 448,
                  451, 454, 457, 460, 463, 466, 469, 472, 475, 478, 481, 484,
                  487, 490, 493, 496, 499, 502, 505, 508, 511, 514, 517, 520,
                  523, 526, 529
    2    1 h      2, 3, 5, 6, 8, 9, 11, 12, 14, 15, 17, 18, 20, 21, 23, 24,
                  26, 27, 29, 30, 32, 33, 35, 36, 38, 39, 41, 42, 44, 45, 47,
                  48, 50, 51, 53, 54, 56, 57, 59, 60, 62, 63, 65, 66, 68, 69,
                  71, 72, 74, 75, 77, 78, 80, 81, 83, 84, 86, 87, 89, 90, 92,
                  93, 95, 96, 98, 99, 101, 102, 104, 105, 107, 108, 110, 111,
                  113, 114, 116, 117, 119, 120, 122, 123, 125, 126, 128, 129,
                  131, 132, 134, 135, 137, 138, 140, 141, 143, 144, 146, 147,
                  149, 150, 152, 153, 155, 156, 158, 159, 161, 162, 164, 165,
                  167, 168, 170, 171, 173, 174, 176, 177, 179, 180, 182, 183,
                  185, 186, 188, 189, 191, 192, 194, 195, 197, 198, 200, 201,
                  203, 204, 206, 207, 209, 210, 212, 213, 215, 216, 218, 219,
                  221, 222, 224, 225, 227, 228, 230, 231, 233, 234, 236, 237,
                  239, 240, 242, 243, 245, 246, 248, 249, 251, 252, 254, 255,
                  257, 258, 260, 261, 263, 264, 266, 267, 269, 270, 272, 273,
                  275, 276, 278, 279, 281, 282, 284, 285, 287, 288, 290, 291,
                  293, 294, 296, 297, 299, 300, 302, 303, 305, 306, 308, 309,
                  311, 312, 314, 315, 317, 318, 320, 321, 323, 324, 326, 327,
                  329, 330, 332, 333, 335, 336, 338, 339, 341, 342, 344, 345,
                  347, 348, 350, 351, 353, 354, 356, 357, 359, 360, 362, 363,
                  365, 366, 368, 369, 371, 372, 374, 375, 377, 378, 380, 381,
                  383, 384, 386, 387, 389, 390, 392, 393, 395, 396, 398, 399,
                  401, 402, 404, 405, 407, 408, 410, 411, 413, 414, 416, 417,
                  419, 420, 422, 423, 425, 426, 428, 429, 431, 432, 434, 435,
                  437, 438, 440, 441, 443, 444, 446, 447, 449, 450, 452, 453,
                  455, 456, 458, 459, 461, 462, 464, 465, 467, 468, 470, 471,
                  473, 474, 476, 477, 479, 480, 482, 483, 485, 486, 488, 489,
                  491, 492, 494, 495, 497, 498, 500, 501, 503, 504, 506, 507,
                  509, 510, 512, 513, 515, 516, 518, 519, 521, 522, 524, 525,
                  527, 528, 530, 531

molecular fragmentation (1/2 indicates fragments):
111222222222222222222222222222222222222222222222222222222222222222222222
222222222222222222222222222222222222222222222222222222222222222222222222
222222222222222222222222222222222222222222222222222222222222222222222222
222222222222222222222222222222222222222222222222222222222222222222222222
222222222222222222222222222222222222222222222222222222222222222222222222
222222222222222222222222222222222222222222222222222222222222222222222222
222222222222222222222222222222222222222222222222222222222222222222222222
222222222222222222222222222
# atoms in fragment 1/2:     3   528
 fragment masses (1/2) :       18.02     3170.69
CMA distance (Bohr)    :   7.804
constraining FC (au)   :  0.0500

           -------------------------------------------------
          |                 G F N 2 - x T B                 |
           -------------------------------------------------

        Reference                      10.1021/acs.jctc.8b01176
      * Hamiltonian:
        H0-scaling (s, p, d)           1.850000    2.230000    2.230000
        zeta-weighting                 0.500000
      * Dispersion:
        s8                             2.700000
        a1                             0.520000
        a2                             5.000000
        s9                             5.000000
      * Repulsion:
        kExp                           1.500000    1.000000
        rExp                           1.000000
      * Coulomb:
        alpha                          2.000000
        third order                    shell-resolved
        anisotropic                    true
        a3                             3.000000
        a5                             4.000000
        cn-shift                       1.200000
        cn-exp                         4.000000
        max-rad                        5.000000


          ...................................................
          :                      SETUP                      :
          :.................................................:
          :  # basis functions                1062          :
          :  # atomic orbitals                1062          :
          :  # shells                          708          :
          :  # electrons                      1416          :
          :  max. iterations                   250          :
          :  Hamiltonian                  GFN2-xTB          :
          :  restarted?                      false          :
          :  GBSA solvation                  false          :
          :  PC potential                    false          :
          :  electronic temp.          300.0000000     K    :
          :  accuracy                    1.0000000          :
          :  -> integral cutoff          0.2500000E+02      :
          :  -> integral neglect         0.1000000E-07      :
          :  -> SCF convergence          0.1000000E-05 Eh   :
          :  -> wf. convergence          0.1000000E-03 e    :
          :  Broyden damping             0.4000000          :
          ...................................................

 iter      E             dE          RMSdq      gap      omega  full diag
   1   -906.5381857 -0.906538E+03  0.406E+00    8.63       0.0  T
   2   -906.5949678 -0.567821E-01  0.241E+00    7.77       1.0  T
   3   -906.6174524 -0.224846E-01  0.214E-01    6.35       1.0  T
   4   -906.6213901 -0.393766E-02  0.463E-02    6.76       1.0  T
   5   -906.6214579 -0.678414E-04  0.312E-02    6.69       1.0  T
   6   -906.6214872 -0.292060E-04  0.431E-03    6.72       1.0  T
   7   -906.6214889 -0.176061E-05  0.771E-04    6.72       5.6  T
   8   -906.6214889 -0.228265E-07  0.390E-04    6.72      11.1  T
   9   -906.6214889 -0.104696E-07  0.667E-05    6.72      65.1  T

   *** convergence criteria satisfied after 9 iterations ***

         #    Occupation            Energy/Eh            Energy/eV
      -------------------------------------------------------------
         1        2.0000           -0.6957344             -18.9319
       ...           ...                  ...                  ...
       702        2.0000           -0.3616703              -9.8415
       703        2.0000           -0.3588132              -9.7638
       704        2.0000           -0.3529334              -9.6038
       705        2.0000           -0.3451832              -9.3929
       706        2.0000           -0.3414524              -9.2914
       707        2.0000           -0.3389348              -9.2229
       708        2.0000           -0.3277954              -8.9198 (HOMO)
       709                         -0.0808450              -2.1999 (LUMO)
       710                         -0.0759958              -2.0680
       711                         -0.0551871              -1.5017
       712                         -0.0514654              -1.4004
       713                         -0.0385374              -1.0487
       ...                                ...                  ...
      1062                          0.4752685              12.9327
      -------------------------------------------------------------
                  HL-Gap            0.2469505 Eh            6.7199 eV
             Fermi-level           -0.2043202 Eh           -5.5598 eV
 
 localization/xTB-IFF output generation
 averaging CT terms over            1  occ. levels
 averaging CT terms over            2  virt. levels
 dipole moment from electron density (au)
     X       Y       Z   
   0.8435   4.7888   2.3002  total (Debye):   13.673
cpu  time for init local    0.41 s
wall time for init local    0.20 s
 doing rotations ...
 initialization of trafo matrix to unity

 converged in     16 iterations, threshold :   0.99985324D-06
 doing transformations ...
 lmo centers(Z=2) and atoms on file <lmocent.coord>
 LMO Fii/eV  ncent    charge center   contributions...
    1 LP   *******   0.00   3.07835   1.86731  -1.94270  133O :  8.38  142O :  4.05  175O :  4.01   76O :  3.68  136O :  3.46  325O :  3.39  232O :  3.32  475O :  3.17  313O :  3.07  211O :  2.82   46O :  2.81   64O :  2.79
  226O :  2.76    1O :  2.71  160O :  2.67  385O :  2.65  100O :  2.64   10O :  2.59  466O :  2.44  106O :  2.36  271O :  2.33  304O :  2.31  448O :  2.31  196O :  2.30
  349O :  2.24   16O :  2.23   97O :  2.17   85O :  2.15   82O :  2.14  130O :  2.11  403O :  2.11  229O :  2.10  439O :  2.09  259O :  2.06  520O :  1.96   88O :  1.96
  148O :  1.94  526O :  1.91  469O :  1.90  454O :  1.83  199O :  1.79  517O :  1.76  463O :  1.69  286O :  1.57   25O :  1.53  256O :  1.51  340O :  1.49   73O :  1.49
  145O :  1.47  139O :  1.44   31O :  1.44  343O :  1.43  214O :  1.39  253O :  1.39  400O :  1.34   78H :  1.34  208O :  1.28  328O :  1.27   58O :  1.26  247O :  1.26
  319O :  1.25  298O :  1.22  187O :  1.22   61O :  1.20   79O :  1.20   34O :  1.19  409O :  1.16  334O :  1.16  373O :  1.13  118O :  1.13   67O :  1.12  508O :  1.11
  523O :  1.10  238O :  1.09  235O :  1.07  310O :  1.07  427O :  1.01  496O :  0.99  442O :  0.99   37O :  0.98  289O :  0.97  166O :  0.94  457O :  0.93   19O :  0.91
  346O :  0.90  274O :  0.90   52O :  0.89  121O :  0.88  280O :  0.88  163O :  0.88   66H :  0.87  220O :  0.86  249H :  0.85  529O :  0.84  391O :  0.84  172O :  0.83
  460O :  0.82  184O :  0.80  502O :  0.79   94O :  0.78  181O :  0.77  406O :  0.75  322O :  0.73  421O :  0.71  143H :  0.70  202O :  0.70  241O :  0.69  307O :  0.68
  292O :  0.68   49O :  0.67  337O :  0.63  424O :  0.62  244O :  0.62  262O :  0.61  397O :  0.60    7O :  0.59  277O :  0.58   22O :  0.57  295O :  0.57  445O :  0.57
  193O :  0.57  415O :  0.55  352O :  0.54  134H :  0.53  472O :  0.52  514O :  0.51  205O :  0.51   60H :  0.50   43O :  0.49  169O :  0.49   40O :  0.48  124O :  0.45
  157O :  0.45  412O :  0.45    4O :  0.44  484O :  0.43  127O :  0.42  505O :  0.42  436O :  0.42  418O :  0.42  141H :  0.40  151O :  0.40  511O :  0.40  177H :  0.39
   28O :  0.38  331O :  0.38  315H :  0.38  379O :  0.35  499O :  0.35  149H :  0.34   91O :  0.34  490O :  0.34  481O :  0.34  364O :  0.34   99H :  0.33  250O :  0.33
   70O :  0.32  174H :  0.32  487O :  0.32  312H :  0.31  394O :  0.30  227H :  0.30  478O :  0.29  108H :  0.29  430O :  0.29  388O :  0.28  288H :  0.27  223O :  0.27
  176H :  0.26  182H :  0.26  178O :  0.26  493O :  0.25  115O :  0.25    3H :  0.25  370O :  0.24  283O :  0.24  204H :  0.24  291H :  0.24  109O :  0.23  248H :  0.23
  212H :  0.22  376O :  0.22  521H :  0.22  188H :  0.21  423H :  0.20  287H :  0.20   69H :  0.20  231H :  0.20  200H :  0.20  327H :  0.19  103O :  0.19  477H :  0.19
  387H :  0.18  268O :  0.18  425H :  0.17  444H :  0.17  301O :  0.16  462H :  0.16  451O :  0.16  161H :  0.16  105H :  0.16  399H :  0.16   83H :  0.16  159H :  0.15
    2H :  0.14   81H :  0.14  217O :  0.14  314H :  0.13  112O :  0.13  405H :  0.13  509H :  0.12  228H :  0.12  158H :  0.12  257H :  0.12  440H :  0.12  190O :  0.12
   55O :  0.12   26H :  0.11   65H :  0.11  351H :  0.11  404H :  0.11   48H :  0.11  265O :  0.11  242H :  0.11  474H :  0.10  306H :  0.10  122H :  0.10  282H :  0.10
  129H :  0.10   13O :  0.10   11H :  0.10   53H :  0.10  329H :  0.10  449H :  0.10  450H :  0.10   72H :  0.10  402H :  0.09   84H :  0.09  276H :  0.09  240H :  0.09
  326H :  0.09  216H :  0.09  183H :  0.09  284H :  0.09  382O :  0.09   54H :  0.08  392H :  0.08   51H :  0.08  355O :  0.08  154O :  0.08  316O :  0.08   77H :  0.08
  320H :  0.08  512H :  0.08  361O :  0.08  461H :  0.08  516H :  0.07  428H :  0.07  302H :  0.07   87H :  0.07  465H :  0.07
    2 LP   *******   0.00   2.66413  -6.91004  -3.57464   76O :  5.47  133O :  5.43  142O :  3.94  175O :  3.90  136O :  3.37  325O :  3.30  232O :  3.23  475O :  3.08  313O :  2.98  211O :  2.74   64O :  2.74   46O :  2.73
  226O :  2.68    1O :  2.65  385O :  2.60  160O :  2.60  100O :  2.56   10O :  2.55   78H :  2.50  466O :  2.37  106O :  2.30  271O :  2.26  304O :  2.25  448O :  2.24
  196O :  2.23  349O :  2.18   16O :  2.17   97O :  2.13   85O :  2.09   82O :  2.08  130O :  2.06  403O :  2.05  229O :  2.04  439O :  2.04  259O :  2.00  520O :  1.91
   88O :  1.90  148O :  1.89  526O :  1.85  469O :  1.85  454O :  1.78  199O :  1.74  517O :  1.71  463O :  1.64  286O :  1.52   25O :  1.49  256O :  1.46  340O :  1.45
   73O :  1.45  145O :  1.43  139O :  1.40   31O :  1.40  343O :  1.39  214O :  1.35  253O :  1.35  400O :  1.31  208O :  1.25  328O :  1.24  247O :  1.24   58O :  1.23
  319O :  1.21  298O :  1.19  187O :  1.19   61O :  1.17   79O :  1.17   34O :  1.16  409O :  1.13  334O :  1.13  373O :  1.10  118O :  1.10   67O :  1.09  508O :  1.08
  523O :  1.07  238O :  1.06  235O :  1.04  310O :  1.04  427O :  0.98  496O :  0.97  442O :  0.96   37O :  0.96  289O :  0.94  166O :  0.91  457O :  0.91   19O :  0.88
  346O :  0.87  274O :  0.87   52O :  0.86  121O :  0.86  280O :  0.86  163O :  0.85   66H :  0.85  220O :  0.84  249H :  0.82  529O :  0.81  391O :  0.81  172O :  0.80
  460O :  0.80  184O :  0.78  502O :  0.77   94O :  0.76  181O :  0.75  406O :  0.73  322O :  0.71  421O :  0.69  143H :  0.68  202O :  0.68  241O :  0.67  307O :  0.66
  292O :  0.66   49O :  0.65  337O :  0.62  424O :  0.60  134H :  0.60  244O :  0.60  262O :  0.59  397O :  0.58    7O :  0.57  277O :  0.57   22O :  0.56  295O :  0.56
  445O :  0.55  193O :  0.55  415O :  0.54  352O :  0.52  472O :  0.51   60H :  0.50  514O :  0.50  205O :  0.50  169O :  0.48   43O :  0.48   40O :  0.46  124O :  0.44
  157O :  0.44  412O :  0.44    4O :  0.43  484O :  0.42  127O :  0.41  505O :  0.41  436O :  0.41  418O :  0.40  141H :  0.39  151O :  0.39  511O :  0.39  177H :  0.38
   28O :  0.37  331O :  0.37  315H :  0.37  490O :  0.34  379O :  0.34  499O :  0.34  149H :  0.33   91O :  0.33  481O :  0.33  364O :  0.33   99H :  0.32  250O :  0.32
   70O :  0.31  174H :  0.31  487O :  0.31  312H :  0.30  394O :  0.30  108H :  0.29  227H :  0.28  478O :  0.28  430O :  0.28  388O :  0.27  288H :  0.26  223O :  0.26
  176H :  0.26  182H :  0.26  178O :  0.25  493O :  0.25  115O :  0.25    3H :  0.24  370O :  0.24  291H :  0.24  283O :  0.23  204H :  0.23  109O :  0.22  248H :  0.22
  212H :  0.22  376O :  0.22  521H :  0.21  188H :  0.20  423H :  0.20  287H :  0.19   69H :  0.19  231H :  0.19  327H :  0.19  200H :  0.19  477H :  0.19  103O :  0.19
  268O :  0.17  425H :  0.17  387H :  0.16  444H :  0.16  301O :  0.16  462H :  0.16  451O :  0.16  161H :  0.15  105H :  0.15  399H :  0.15   83H :  0.15  159H :  0.14
    2H :  0.14   81H :  0.14  217O :  0.13  314H :  0.13  112O :  0.13  405H :  0.12  509H :  0.12  228H :  0.12  158H :  0.12  257H :  0.12  440H :  0.11  190O :  0.11
   55O :  0.11   26H :  0.11   65H :  0.11  351H :  0.11  404H :  0.11   48H :  0.11  265O :  0.11  242H :  0.10  122H :  0.10  474H :  0.10  306H :  0.10  282H :  0.10
  129H :  0.10   13O :  0.10  329H :  0.10  449H :  0.10   11H :  0.10  450H :  0.09   72H :  0.09  402H :  0.09  240H :  0.09   84H :  0.09  276H :  0.09   53H :  0.09
  326H :  0.09  216H :  0.09  183H :  0.09  284H :  0.08  382O :  0.08   54H :  0.08  392H :  0.08   51H :  0.08  154O :  0.08  355O :  0.08  316O :  0.08  320H :  0.08
  512H :  0.08  361O :  0.08  461H :  0.07  516H :  0.07
    3 LP   *******   0.00  -9.02177   3.37888   1.06259  142O :  5.24  133O :  4.43  175O :  3.18   76O :  2.91  136O :  2.74  325O :  2.69  232O :  2.63  475O :  2.51  313O :  2.43  211O :  2.23   64O :  2.23   46O :  2.22
  226O :  2.19    1O :  2.15  385O :  2.14  160O :  2.11  100O :  2.09   10O :  2.05  466O :  1.93  106O :  1.87  271O :  1.84  304O :  1.83  448O :  1.83  196O :  1.82
  349O :  1.77   16O :  1.76   97O :  1.73   85O :  1.70   82O :  1.69  130O :  1.67  403O :  1.67  229O :  1.66  439O :  1.66  259O :  1.63  520O :  1.55   88O :  1.55
  148O :  1.54  143H :  1.53  469O :  1.50  526O :  1.50  454O :  1.45  199O :  1.42  517O :  1.39  463O :  1.34  286O :  1.24   25O :  1.21  256O :  1.19  340O :  1.18
   73O :  1.17  145O :  1.17  139O :  1.14   31O :  1.14  343O :  1.13  214O :  1.10  253O :  1.10  400O :  1.06   78H :  1.06  328O :  1.01   58O :  1.00  247O :  1.00
  319O :  0.99  187O :  0.97  298O :  0.97   61O :  0.95   79O :  0.95   34O :  0.94  208O :  0.93  409O :  0.92  334O :  0.92  373O :  0.90  118O :  0.89   67O :  0.88
  508O :  0.88  523O :  0.87  238O :  0.87  235O :  0.85  310O :  0.84  427O :  0.80  496O :  0.79  442O :  0.78   37O :  0.78  289O :  0.77  166O :  0.74  457O :  0.74
   19O :  0.72  346O :  0.71  274O :  0.71   52O :  0.71  121O :  0.70  280O :  0.70  163O :  0.69   66H :  0.69  220O :  0.68  249H :  0.67  529O :  0.66  391O :  0.66
  172O :  0.65  460O :  0.65  184O :  0.63  502O :  0.62   94O :  0.62  181O :  0.61  406O :  0.60  322O :  0.58  421O :  0.56  202O :  0.55  241O :  0.55  307O :  0.54
  292O :  0.54   49O :  0.53  337O :  0.50  424O :  0.49  134H :  0.49  244O :  0.49  262O :  0.48  397O :  0.47    7O :  0.46  295O :  0.46  277O :  0.46   22O :  0.45
  445O :  0.45  193O :  0.45  415O :  0.44  352O :  0.42  472O :  0.41  514O :  0.41  205O :  0.40   60H :  0.40  169O :  0.39   43O :  0.39   40O :  0.38  124O :  0.36
  157O :  0.36  412O :  0.35    4O :  0.35  484O :  0.34  127O :  0.34  505O :  0.34  436O :  0.33  418O :  0.33  141H :  0.32  151O :  0.32  511O :  0.32  177H :  0.31
   28O :  0.30  331O :  0.30  315H :  0.30  490O :  0.28  379O :  0.27  499O :  0.27  149H :  0.27   91O :  0.27  481O :  0.27  364O :  0.27   99H :  0.26  250O :  0.26
   70O :  0.26  174H :  0.25  487O :  0.25  394O :  0.24  312H :  0.23  478O :  0.23  227H :  0.23  108H :  0.23  430O :  0.23  388O :  0.22  288H :  0.21  223O :  0.21
  176H :  0.21  178O :  0.21  493O :  0.20  115O :  0.20    3H :  0.20  182H :  0.19  370O :  0.19  283O :  0.19  204H :  0.19  291H :  0.19  109O :  0.18  248H :  0.18
  212H :  0.18  376O :  0.18  521H :  0.17  188H :  0.17  423H :  0.16  287H :  0.16   69H :  0.16  231H :  0.16  200H :  0.16  327H :  0.15  477H :  0.15  103O :  0.15
  387H :  0.14  268O :  0.14  425H :  0.14  444H :  0.13  301O :  0.13  462H :  0.13  451O :  0.13  105H :  0.12  161H :  0.12  399H :  0.12   83H :  0.12  159H :  0.12
    2H :  0.11   81H :  0.11  217O :  0.11  112O :  0.11  314H :  0.11  405H :  0.10  509H :  0.10  228H :  0.10  158H :  0.10  257H :  0.09  440H :  0.09  190O :  0.09
   55O :  0.09   65H :  0.09   26H :  0.09  351H :  0.09  404H :  0.09   48H :  0.09  265O :  0.09  242H :  0.09  474H :  0.08  306H :  0.08  122H :  0.08  282H :  0.08
  129H :  0.08   13O :  0.08   53H :  0.08   11H :  0.08  329H :  0.08  449H :  0.08  450H :  0.08   72H :  0.08  402H :  0.07  240H :  0.07   84H :  0.07  276H :  0.07
  326H :  0.07  216H :  0.07  183H :  0.07
    4 LP   *******   0.01   0.62659   4.84513   5.45857  325O :  4.23  133O :  3.75  142O :  2.72  175O :  2.70   76O :  2.47  136O :  2.32  232O :  2.23  475O :  2.13  313O :  2.06   64O :  1.89  211O :  1.89   46O :  1.89
  226O :  1.85    1O :  1.82  385O :  1.81  160O :  1.79  100O :  1.77   10O :  1.74  466O :  1.64  106O :  1.59  448O :  1.58  271O :  1.56  304O :  1.55  196O :  1.54
  349O :  1.50   16O :  1.50   97O :  1.47   85O :  1.44   82O :  1.43  130O :  1.42  403O :  1.42  229O :  1.41  439O :  1.41  259O :  1.38  520O :  1.32   88O :  1.32
  148O :  1.30  469O :  1.28  526O :  1.25  454O :  1.23  199O :  1.20  517O :  1.18  463O :  1.13  286O :  1.05   25O :  1.03  256O :  1.01  340O :  1.00   73O :  1.00
  145O :  0.99  139O :  0.97   31O :  0.96  343O :  0.96  214O :  0.94  253O :  0.93  400O :  0.90   78H :  0.90  208O :  0.86  328O :  0.85   58O :  0.85  247O :  0.85
  319O :  0.84  298O :  0.82  187O :  0.82   61O :  0.81   79O :  0.81   34O :  0.80  334O :  0.78  409O :  0.78  373O :  0.76  118O :  0.76   67O :  0.75  508O :  0.75
  523O :  0.74  238O :  0.73  235O :  0.72  310O :  0.72  427O :  0.68  496O :  0.67  442O :  0.66   37O :  0.65  289O :  0.65  166O :  0.63  457O :  0.63   19O :  0.61
  346O :  0.60  274O :  0.60   52O :  0.60  121O :  0.59  280O :  0.59  163O :  0.59   66H :  0.59  220O :  0.58  249H :  0.57  529O :  0.56  391O :  0.56  172O :  0.55
  460O :  0.55  184O :  0.54  502O :  0.53   94O :  0.52  181O :  0.52  406O :  0.51  322O :  0.49  421O :  0.47  143H :  0.47  202O :  0.47  241O :  0.46  307O :  0.46
  292O :  0.46   49O :  0.45  337O :  0.42  424O :  0.42  134H :  0.41  244O :  0.41  262O :  0.41  397O :  0.40    7O :  0.39  277O :  0.39   22O :  0.38  295O :  0.38
  193O :  0.38  445O :  0.38  415O :  0.37  352O :  0.36  472O :  0.35  514O :  0.34  205O :  0.34   60H :  0.34   43O :  0.33  169O :  0.33   40O :  0.32  124O :  0.30
  157O :  0.30  412O :  0.30    4O :  0.30  484O :  0.29  505O :  0.28  127O :  0.28  436O :  0.28  418O :  0.28  141H :  0.27  151O :  0.27  511O :  0.27   28O :  0.26
  177H :  0.26  331O :  0.26  315H :  0.26  490O :  0.23  379O :  0.23  499O :  0.23  149H :  0.23   91O :  0.23  481O :  0.23  364O :  0.23   99H :  0.22  250O :  0.22
   70O :  0.22  174H :  0.21  487O :  0.21  312H :  0.21  394O :  0.20  227H :  0.20  108H :  0.20  478O :  0.20  430O :  0.19  388O :  0.19  288H :  0.18  223O :  0.18
  176H :  0.18  182H :  0.18  178O :  0.18  493O :  0.17  115O :  0.17    3H :  0.17  204H :  0.16  370O :  0.16  283O :  0.16  291H :  0.16  109O :  0.15  248H :  0.15
  212H :  0.15  376O :  0.15  521H :  0.15  188H :  0.14  423H :  0.14  477H :  0.13  287H :  0.13   69H :  0.13  231H :  0.13  200H :  0.13  103O :  0.13  387H :  0.12
  268O :  0.12  425H :  0.12  444H :  0.11  301O :  0.11  462H :  0.11  451O :  0.11  327H :  0.11  161H :  0.11  105H :  0.11   83H :  0.10  399H :  0.10  159H :  0.10
    2H :  0.10   81H :  0.09  217O :  0.09  314H :  0.09  112O :  0.09  405H :  0.09  509H :  0.08  228H :  0.08  158H :  0.08  257H :  0.08  440H :  0.08  190O :  0.08
   55O :  0.08   26H :  0.08   65H :  0.08  351H :  0.07  404H :  0.07  265O :  0.07   48H :  0.07  242H :  0.07
    5 LP   *******   0.01   1.90501   3.20913  -5.56968  133O :  5.09  142O :  2.71  175O :  2.69   76O :  2.46  136O :  2.32  325O :  2.27  232O :  2.22  475O :  2.12  313O :  2.05  211O :  1.89   46O :  1.88  226O :  1.85
    1O :  1.82   64O :  1.82  385O :  1.81  160O :  1.79  100O :  1.77   10O :  1.74  466O :  1.64  106O :  1.58  271O :  1.56  304O :  1.55  448O :  1.54  196O :  1.54
  349O :  1.50   16O :  1.49   97O :  1.46   85O :  1.44   82O :  1.43  130O :  1.42  403O :  1.41  229O :  1.41  439O :  1.40  259O :  1.38  520O :  1.31   88O :  1.31
  148O :  1.29  469O :  1.27  526O :  1.27  454O :  1.22  199O :  1.20  134H :  1.20  517O :  1.18  463O :  1.13  286O :  1.05   25O :  1.02  256O :  1.01  340O :  1.00
   73O :  1.00  145O :  0.99  139O :  0.96   31O :  0.96  343O :  0.96  214O :  0.93  253O :  0.93  400O :  0.90   78H :  0.89  208O :  0.86  328O :  0.85   58O :  0.85
  247O :  0.84  319O :  0.84  298O :  0.82  187O :  0.82   61O :  0.81   79O :  0.80   34O :  0.80  409O :  0.78  334O :  0.77  373O :  0.76  118O :  0.75   67O :  0.75
  508O :  0.74  238O :  0.73  523O :  0.73  235O :  0.72  310O :  0.71  427O :  0.68  496O :  0.66  442O :  0.66   37O :  0.66  289O :  0.65  166O :  0.63  457O :  0.62
   19O :  0.61  346O :  0.60  274O :  0.60   52O :  0.60   66H :  0.60  121O :  0.59  280O :  0.59  163O :  0.59  220O :  0.58  249H :  0.57  529O :  0.56  391O :  0.56
  172O :  0.55  460O :  0.55  184O :  0.53  502O :  0.53   94O :  0.52  181O :  0.51  406O :  0.50  322O :  0.49  421O :  0.47  143H :  0.47  202O :  0.47  241O :  0.46
  307O :  0.46  292O :  0.46   49O :  0.45  337O :  0.42  424O :  0.41  244O :  0.41  262O :  0.41  397O :  0.40    7O :  0.39  277O :  0.39   22O :  0.38  295O :  0.38
  445O :  0.38  193O :  0.38  415O :  0.37  352O :  0.36  472O :  0.35  514O :  0.34  205O :  0.34   60H :  0.34   43O :  0.33  169O :  0.33   40O :  0.32  124O :  0.30
  157O :  0.30  412O :  0.30    4O :  0.30  484O :  0.29  127O :  0.28  505O :  0.28  436O :  0.28  418O :  0.28  141H :  0.27  151O :  0.27  511O :  0.27  177H :  0.26
   28O :  0.26  331O :  0.26  315H :  0.26  490O :  0.24  379O :  0.23  499O :  0.23  149H :  0.23   91O :  0.23  481O :  0.23  364O :  0.23   99H :  0.22  250O :  0.22
   70O :  0.22  174H :  0.21  487O :  0.21  312H :  0.21  394O :  0.20  227H :  0.20  108H :  0.20  478O :  0.20  430O :  0.19  388O :  0.19  288H :  0.18  223O :  0.18
  176H :  0.18  182H :  0.18  178O :  0.17  493O :  0.17  115O :  0.17    3H :  0.17  370O :  0.16  283O :  0.16  204H :  0.16  291H :  0.16  109O :  0.15  248H :  0.15
  212H :  0.15  376O :  0.15  521H :  0.15  188H :  0.14  423H :  0.14  287H :  0.13   69H :  0.13  231H :  0.13  327H :  0.13  200H :  0.13  477H :  0.13  103O :  0.13
  387H :  0.12  268O :  0.12  425H :  0.12  444H :  0.11  301O :  0.11  462H :  0.11  451O :  0.11  161H :  0.11  105H :  0.11  399H :  0.10   83H :  0.10  159H :  0.10
    2H :  0.09   81H :  0.09  217O :  0.09  314H :  0.09  112O :  0.09  405H :  0.08  509H :  0.08  228H :  0.08  158H :  0.08  257H :  0.08  440H :  0.08  190O :  0.08
   55O :  0.08   26H :  0.08   65H :  0.08  351H :  0.07   48H :  0.07  404H :  0.07  265O :  0.07  242H :  0.07
    6 LP   *******   0.01  -2.44426  -8.19555   3.16678  175O :  4.50  133O :  3.56  142O :  2.58   76O :  2.34  136O :  2.21  325O :  2.16  232O :  2.11  475O :  2.02  313O :  1.95  211O :  1.80   64O :  1.80   46O :  1.79
  226O :  1.76  385O :  1.72    1O :  1.71  160O :  1.70  100O :  1.69   10O :  1.65  466O :  1.56  106O :  1.51  271O :  1.48  304O :  1.47  448O :  1.47  196O :  1.46
  349O :  1.43   16O :  1.42   97O :  1.40   85O :  1.37   82O :  1.36  130O :  1.35  403O :  1.35  229O :  1.34  439O :  1.33  259O :  1.31  520O :  1.25   88O :  1.25
  148O :  1.24  526O :  1.21  469O :  1.21  454O :  1.16  199O :  1.14  517O :  1.12  463O :  1.08  286O :  0.99   25O :  0.98  256O :  0.96  340O :  0.95   73O :  0.95
  145O :  0.94   31O :  0.91  139O :  0.91  343O :  0.91  253O :  0.89  214O :  0.88  247O :  0.86  400O :  0.86   78H :  0.85  208O :  0.82  328O :  0.81   58O :  0.81
  319O :  0.80  249H :  0.78  298O :  0.78  187O :  0.78   61O :  0.77   79O :  0.77   34O :  0.76  409O :  0.74  334O :  0.74  373O :  0.72  118O :  0.72   67O :  0.71
  508O :  0.71  523O :  0.70  238O :  0.70  235O :  0.68  310O :  0.66  427O :  0.64  496O :  0.63  442O :  0.63   37O :  0.63  289O :  0.62  166O :  0.60  457O :  0.59
   19O :  0.58  346O :  0.57  274O :  0.57   52O :  0.57  121O :  0.56  280O :  0.56  163O :  0.56   66H :  0.56  220O :  0.55  529O :  0.53  391O :  0.53  172O :  0.53
  460O :  0.53  184O :  0.51  502O :  0.50   94O :  0.50  181O :  0.49  406O :  0.48  322O :  0.46  421O :  0.45  143H :  0.45  202O :  0.44  241O :  0.44  307O :  0.44
  292O :  0.43   49O :  0.43  337O :  0.40  424O :  0.39  134H :  0.39  244O :  0.39  262O :  0.39  397O :  0.38    7O :  0.37  277O :  0.37   22O :  0.36  295O :  0.36
  445O :  0.36  193O :  0.36  415O :  0.35  352O :  0.34  472O :  0.33  514O :  0.33  205O :  0.32   60H :  0.32  169O :  0.31   43O :  0.31   40O :  0.30  124O :  0.29
  157O :  0.29  412O :  0.29    4O :  0.28  484O :  0.27  505O :  0.27  127O :  0.27  141H :  0.27  436O :  0.27  418O :  0.26  151O :  0.26  511O :  0.25   28O :  0.25
  331O :  0.24  315H :  0.24  490O :  0.22  379O :  0.22  499O :  0.22  149H :  0.22  364O :  0.22   91O :  0.22  481O :  0.22  177H :  0.21   99H :  0.21  250O :  0.21
   70O :  0.21  174H :  0.20  487O :  0.20  312H :  0.20  394O :  0.19  108H :  0.19  478O :  0.19  227H :  0.19  430O :  0.18  388O :  0.18  288H :  0.17  223O :  0.17
  182H :  0.17  178O :  0.17  493O :  0.16  115O :  0.16  370O :  0.16  283O :  0.15  204H :  0.15  291H :  0.15    3H :  0.15  109O :  0.15  212H :  0.14  376O :  0.14
  248H :  0.14  521H :  0.14  188H :  0.13  176H :  0.13  423H :  0.13  287H :  0.13   69H :  0.13  231H :  0.13  200H :  0.13  327H :  0.12  477H :  0.12  103O :  0.12
  387H :  0.11  268O :  0.11  425H :  0.11  444H :  0.11  301O :  0.10  462H :  0.10  451O :  0.10  161H :  0.10  105H :  0.10  399H :  0.10   83H :  0.10  159H :  0.09
    2H :  0.09   81H :  0.09  217O :  0.09  112O :  0.09  314H :  0.08  405H :  0.08  509H :  0.08  228H :  0.08  158H :  0.08  257H :  0.08  440H :  0.08  190O :  0.07
   55O :  0.07   26H :  0.07   65H :  0.07  351H :  0.07
    7 LP   *******   0.01 -18.75939  -1.52772  -5.37760  232O :  4.46  133O :  3.53  142O :  2.56  175O :  2.54   76O :  2.32  136O :  2.19  325O :  2.14  475O :  2.00  313O :  1.94  211O :  1.78   64O :  1.78   46O :  1.77
  226O :  1.74    1O :  1.72  385O :  1.71  160O :  1.69  100O :  1.67   10O :  1.64  466O :  1.50  106O :  1.49  271O :  1.47  304O :  1.46  448O :  1.46  196O :  1.45
  349O :  1.41   16O :  1.41   97O :  1.38   85O :  1.36   82O :  1.35  130O :  1.34  403O :  1.33  229O :  1.33  439O :  1.32  259O :  1.30  520O :  1.24   88O :  1.24
  148O :  1.23  526O :  1.20  469O :  1.20  454O :  1.15  199O :  1.13  517O :  1.11  463O :  1.07  286O :  0.99   25O :  0.97  256O :  0.95  340O :  0.94   73O :  0.94
  145O :  0.93  139O :  0.91   31O :  0.91  343O :  0.90  214O :  0.88  253O :  0.88  400O :  0.85   78H :  0.84  208O :  0.81   58O :  0.80  247O :  0.80  328O :  0.80
  319O :  0.79  298O :  0.77  187O :  0.77   61O :  0.76   79O :  0.76   34O :  0.75  409O :  0.73  334O :  0.73  373O :  0.72  118O :  0.71   67O :  0.71  508O :  0.70
  523O :  0.69  238O :  0.69  235O :  0.68  310O :  0.67  427O :  0.64  496O :  0.63  442O :  0.63   37O :  0.62  289O :  0.61  166O :  0.59  457O :  0.59   19O :  0.57
  346O :  0.57  274O :  0.57   52O :  0.56  121O :  0.56  280O :  0.56  163O :  0.55   66H :  0.55  220O :  0.54  249H :  0.54  529O :  0.53  391O :  0.53  172O :  0.52
  460O :  0.52  184O :  0.50  502O :  0.50   94O :  0.49  181O :  0.49  406O :  0.48  322O :  0.46  421O :  0.45  143H :  0.44  202O :  0.44  241O :  0.44  307O :  0.43
  292O :  0.43   49O :  0.42  337O :  0.40  424O :  0.39  134H :  0.39  244O :  0.39  262O :  0.39  397O :  0.38    7O :  0.37  277O :  0.37   22O :  0.36  295O :  0.36
  193O :  0.36  445O :  0.36  415O :  0.35  352O :  0.34  472O :  0.33  514O :  0.32  205O :  0.32   60H :  0.32  169O :  0.31   43O :  0.31   40O :  0.30  124O :  0.28
  157O :  0.28  412O :  0.28    4O :  0.28  484O :  0.27  505O :  0.27  127O :  0.27  436O :  0.26  418O :  0.26  141H :  0.26  151O :  0.25  511O :  0.25  177H :  0.25
  331O :  0.24   28O :  0.24  315H :  0.24  490O :  0.22  379O :  0.22  499O :  0.22  149H :  0.22   91O :  0.22  481O :  0.22  364O :  0.21   99H :  0.21  250O :  0.21
   70O :  0.20  174H :  0.20  487O :  0.20  312H :  0.20  394O :  0.19  227H :  0.18  478O :  0.18  108H :  0.18  430O :  0.18  388O :  0.18  288H :  0.17  223O :  0.17
  176H :  0.17  182H :  0.17  178O :  0.16  493O :  0.16  115O :  0.16    3H :  0.16  283O :  0.15  204H :  0.15  291H :  0.15  370O :  0.15  109O :  0.15  248H :  0.14
  212H :  0.14  376O :  0.14  521H :  0.14  188H :  0.13  423H :  0.13  287H :  0.13   69H :  0.13  231H :  0.13  200H :  0.12  327H :  0.12  477H :  0.12  103O :  0.12
  387H :  0.11  268O :  0.11  425H :  0.11  444H :  0.11  301O :  0.10  462H :  0.10  451O :  0.10  161H :  0.10  105H :  0.10  399H :  0.10   83H :  0.10  159H :  0.10
    2H :  0.09   81H :  0.09  217O :  0.09  314H :  0.09  112O :  0.08  405H :  0.08  509H :  0.08  228H :  0.08  257H :  0.08  158H :  0.07  440H :  0.07  190O :  0.07
   55O :  0.07   26H :  0.07   65H :  0.07
    8 LP   *******   0.01   0.87572 -11.59732  -2.51868  100O :  3.69  133O :  3.46  142O :  2.50  175O :  2.49   76O :  2.28  136O :  2.14  325O :  2.10  232O :  2.05  475O :  1.96  313O :  1.90  211O :  1.74   64O :  1.74
   46O :  1.74  226O :  1.71    1O :  1.67  385O :  1.67  160O :  1.65   10O :  1.60  466O :  1.51  271O :  1.44  448O :  1.43  304O :  1.43  196O :  1.42  106O :  1.38
  349O :  1.38   16O :  1.38   97O :  1.35   85O :  1.33   82O :  1.32  130O :  1.31  403O :  1.31  229O :  1.30  439O :  1.29  259O :  1.27  520O :  1.21   88O :  1.21
  148O :  1.20  526O :  1.18  469O :  1.17  454O :  1.13  199O :  1.11  517O :  1.09  463O :  1.04  286O :  0.97   25O :  0.95  256O :  0.93  340O :  0.92   73O :  0.92
  145O :  0.91  139O :  0.89   31O :  0.89  343O :  0.89  214O :  0.86  253O :  0.86  400O :  0.83   78H :  0.83  208O :  0.79  247O :  0.79  328O :  0.79   58O :  0.78
  319O :  0.77  298O :  0.76  187O :  0.76   61O :  0.74   79O :  0.74   34O :  0.73  409O :  0.72  334O :  0.72  373O :  0.70  118O :  0.70   67O :  0.69  508O :  0.69
  523O :  0.68  238O :  0.68  235O :  0.66  310O :  0.66  427O :  0.62  496O :  0.61  442O :  0.61   37O :  0.61  289O :  0.60  166O :  0.58  457O :  0.58   19O :  0.56
  346O :  0.56  274O :  0.56   52O :  0.55  280O :  0.54  163O :  0.54  249H :  0.54  121O :  0.54   66H :  0.54  220O :  0.53  529O :  0.52  391O :  0.52  172O :  0.51
  460O :  0.51  184O :  0.49  502O :  0.49   94O :  0.48  181O :  0.48  406O :  0.47  322O :  0.45  421O :  0.44  143H :  0.43  202O :  0.43  241O :  0.43  307O :  0.42
  292O :  0.42   49O :  0.42  337O :  0.39  424O :  0.38  134H :  0.38  244O :  0.38  262O :  0.38  397O :  0.37    7O :  0.36  277O :  0.36   22O :  0.35  295O :  0.35
  193O :  0.35  445O :  0.35  415O :  0.34  352O :  0.33  472O :  0.32  514O :  0.32  205O :  0.32   60H :  0.31  169O :  0.30   43O :  0.30   40O :  0.29  124O :  0.28
  157O :  0.28  412O :  0.28    4O :  0.27  484O :  0.27  505O :  0.26  127O :  0.26  436O :  0.26  418O :  0.26  141H :  0.25  151O :  0.25  511O :  0.25  177H :  0.24
   28O :  0.24  331O :  0.24  315H :  0.24  490O :  0.22  379O :  0.21  499O :  0.21  149H :  0.21   91O :  0.21  481O :  0.21  364O :  0.21   99H :  0.20  250O :  0.20
   70O :  0.20  174H :  0.20  487O :  0.20  312H :  0.19  394O :  0.19  478O :  0.18  227H :  0.18  430O :  0.18  388O :  0.17  288H :  0.17  223O :  0.17  176H :  0.16
  182H :  0.16  178O :  0.16  493O :  0.16  115O :  0.16    3H :  0.15  370O :  0.15  283O :  0.15  204H :  0.15  291H :  0.14  109O :  0.14  248H :  0.14  212H :  0.14
  376O :  0.14  521H :  0.13  188H :  0.13  423H :  0.13   69H :  0.12  287H :  0.12  231H :  0.12  200H :  0.12  327H :  0.12  477H :  0.12  103O :  0.12  387H :  0.11
  268O :  0.11  425H :  0.11  444H :  0.10  301O :  0.10  462H :  0.10  451O :  0.10  161H :  0.10  105H :  0.10  399H :  0.10   83H :  0.10  159H :  0.09   81H :  0.09
    2H :  0.09  217O :  0.08  314H :  0.08  112O :  0.08  405H :  0.08  108H :  0.08  509H :  0.08  228H :  0.08  158H :  0.07  257H :  0.07  440H :  0.07  190O :  0.07
   55O :  0.07   26H :  0.07   65H :  0.07
    9 LP   *******   0.01  -4.10591  -6.19949   5.76318  313O :  3.96  133O :  3.36  142O :  2.44  175O :  2.39   76O :  2.21  136O :  2.08  325O :  2.04  232O :  2.00  475O :  1.91  211O :  1.70   64O :  1.70   46O :  1.69
  226O :  1.66    1O :  1.63  385O :  1.62  160O :  1.60  100O :  1.59   10O :  1.56  466O :  1.47  106O :  1.42  271O :  1.40  304O :  1.39  448O :  1.39  196O :  1.38
  349O :  1.35   16O :  1.34   97O :  1.32   85O :  1.29   82O :  1.28  403O :  1.27  130O :  1.27  229O :  1.26  439O :  1.26  259O :  1.24  520O :  1.18   88O :  1.18
  148O :  1.17  526O :  1.14  469O :  1.14  454O :  1.10  199O :  1.08  517O :  1.06  463O :  1.01  286O :  0.94   25O :  0.92  256O :  0.91   73O :  0.90  340O :  0.89
  145O :  0.89  139O :  0.87   31O :  0.86  343O :  0.86  214O :  0.84  253O :  0.84  400O :  0.81   78H :  0.80  208O :  0.77  328O :  0.76  247O :  0.76   58O :  0.76
  319O :  0.75   79O :  0.74  298O :  0.74  187O :  0.73   61O :  0.72   34O :  0.71  409O :  0.70  334O :  0.70  373O :  0.68  118O :  0.68   67O :  0.67  508O :  0.67
  523O :  0.66  238O :  0.66  310O :  0.65  235O :  0.65  427O :  0.61  496O :  0.60  442O :  0.60   37O :  0.59  289O :  0.58  166O :  0.56  457O :  0.56   19O :  0.55
  346O :  0.54  274O :  0.54   52O :  0.54  121O :  0.53  280O :  0.53  249H :  0.53  163O :  0.53   66H :  0.52  220O :  0.52  529O :  0.50  391O :  0.50  172O :  0.50
  460O :  0.50  184O :  0.48  502O :  0.47   94O :  0.47  181O :  0.46  406O :  0.45  322O :  0.44  421O :  0.42  143H :  0.42  202O :  0.42  307O :  0.42  241O :  0.42
  292O :  0.41   49O :  0.40  337O :  0.38  424O :  0.37  134H :  0.37  244O :  0.37  262O :  0.37  397O :  0.36    7O :  0.35  277O :  0.35   22O :  0.34  295O :  0.34
  193O :  0.34  445O :  0.34  415O :  0.33  352O :  0.32  472O :  0.31  514O :  0.31  205O :  0.31   60H :  0.30  169O :  0.29   43O :  0.29   40O :  0.29  124O :  0.27
  157O :  0.27  412O :  0.27    4O :  0.27  484O :  0.26  127O :  0.26  505O :  0.26  436O :  0.25  418O :  0.25  141H :  0.24  151O :  0.24  511O :  0.24   28O :  0.23
  331O :  0.23  177H :  0.22  490O :  0.21  379O :  0.21  499O :  0.21  149H :  0.21   91O :  0.21  481O :  0.20  364O :  0.20   99H :  0.20  315H :  0.20  250O :  0.20
   70O :  0.19  174H :  0.19  487O :  0.19  312H :  0.19  394O :  0.18  478O :  0.18  227H :  0.18  108H :  0.18  430O :  0.17  388O :  0.17  288H :  0.16  223O :  0.16
  182H :  0.16  178O :  0.16  493O :  0.15  115O :  0.15    3H :  0.15  370O :  0.15  283O :  0.15  204H :  0.14  291H :  0.14  109O :  0.14  212H :  0.14  376O :  0.13
  176H :  0.13  521H :  0.13  248H :  0.13  188H :  0.13  423H :  0.12   69H :  0.12  287H :  0.12  231H :  0.12  200H :  0.12  327H :  0.12  477H :  0.12  103O :  0.11
  387H :  0.11  268O :  0.11  425H :  0.10  444H :  0.10  301O :  0.10  462H :  0.10  451O :  0.10  105H :  0.10  161H :  0.10  399H :  0.09   83H :  0.09  159H :  0.09
    2H :  0.09  217O :  0.08  112O :  0.08   81H :  0.08  405H :  0.08  509H :  0.07  228H :  0.07  158H :  0.07  257H :  0.07  440H :  0.07  190O :  0.07
   10 LP   *******   0.01  -4.50183  -1.80448   8.35607  160O :  3.53  133O :  3.27  142O :  2.36  175O :  2.35   76O :  2.15  136O :  2.02  325O :  1.98  232O :  1.94  475O :  1.85  313O :  1.80  211O :  1.65   64O :  1.65
   46O :  1.64  226O :  1.61    1O :  1.59  385O :  1.58  100O :  1.54   10O :  1.52  466O :  1.43  106O :  1.38  271O :  1.36  304O :  1.35  448O :  1.35  196O :  1.34
  349O :  1.31   16O :  1.30   97O :  1.28   85O :  1.25   82O :  1.25  403O :  1.23  229O :  1.23  439O :  1.22  130O :  1.22  259O :  1.20   88O :  1.15  520O :  1.15
  148O :  1.13  526O :  1.11  469O :  1.11  454O :  1.07  199O :  1.05  517O :  1.03  463O :  0.99  286O :  0.92   25O :  0.90  256O :  0.88  340O :  0.87   73O :  0.87
  145O :  0.86  139O :  0.84   31O :  0.84  343O :  0.84  214O :  0.81  253O :  0.81  400O :  0.79   78H :  0.78  208O :  0.75  328O :  0.74   58O :  0.74  247O :  0.74
  319O :  0.73  298O :  0.72  187O :  0.71   61O :  0.70   79O :  0.70   34O :  0.69  409O :  0.68  334O :  0.68  373O :  0.66  118O :  0.66   67O :  0.65  508O :  0.65
  523O :  0.64  238O :  0.64  310O :  0.63  235O :  0.63  427O :  0.59  496O :  0.58  442O :  0.58   37O :  0.57  289O :  0.57  166O :  0.55  457O :  0.55   19O :  0.53
  274O :  0.53  346O :  0.53   52O :  0.52  121O :  0.52  280O :  0.52  163O :  0.51   66H :  0.51  220O :  0.50  249H :  0.50  529O :  0.49  391O :  0.49  172O :  0.48
  460O :  0.48  184O :  0.47  502O :  0.46   94O :  0.46  181O :  0.45  406O :  0.44  322O :  0.43  421O :  0.41  143H :  0.41  202O :  0.41  241O :  0.40  292O :  0.40
  307O :  0.40   49O :  0.39  337O :  0.37  424O :  0.36  134H :  0.36  244O :  0.36  262O :  0.36  397O :  0.35    7O :  0.34  277O :  0.34   22O :  0.33  295O :  0.33
  445O :  0.33  193O :  0.33  415O :  0.32  352O :  0.31  472O :  0.31  514O :  0.30  205O :  0.30   60H :  0.29  169O :  0.29   43O :  0.29   40O :  0.28  124O :  0.26
  157O :  0.26  412O :  0.26    4O :  0.26  484O :  0.25  505O :  0.25  127O :  0.25  436O :  0.24  418O :  0.24  141H :  0.24  151O :  0.24  511O :  0.23   28O :  0.23
  177H :  0.23  331O :  0.22  315H :  0.22  490O :  0.21  379O :  0.20  499O :  0.20  149H :  0.20   91O :  0.20  481O :  0.20  364O :  0.20   99H :  0.19  250O :  0.19
   70O :  0.19  312H :  0.19  174H :  0.19  487O :  0.18  394O :  0.18  227H :  0.17  478O :  0.17  108H :  0.17  430O :  0.17  388O :  0.16  288H :  0.16  223O :  0.16
  176H :  0.15  182H :  0.15  178O :  0.15  493O :  0.15  115O :  0.15    3H :  0.14  370O :  0.14  283O :  0.14  204H :  0.14  291H :  0.14  109O :  0.13  248H :  0.13
  212H :  0.13  376O :  0.13  521H :  0.13  188H :  0.12  423H :  0.12  287H :  0.12   69H :  0.12  231H :  0.12  200H :  0.12  327H :  0.11  477H :  0.11  103O :  0.11
  387H :  0.10  268O :  0.10  425H :  0.10  444H :  0.10  301O :  0.10  462H :  0.10  451O :  0.09  399H :  0.09   83H :  0.09  105H :  0.09  159H :  0.09    2H :  0.08
  217O :  0.08  112O :  0.08   81H :  0.08  405H :  0.07  509H :  0.07  228H :  0.07  158H :  0.07
   11 LP   *******   0.01   4.44480   0.45687 -18.84805  133O :  3.13   64O :  2.98  142O :  2.28  175O :  2.26   76O :  2.07  136O :  1.95  325O :  1.91  232O :  1.87  475O :  1.78  313O :  1.73  211O :  1.59   46O :  1.58
  226O :  1.55    1O :  1.53  385O :  1.52  160O :  1.50  100O :  1.48   10O :  1.46   66H :  1.41  466O :  1.37  106O :  1.33  271O :  1.31  304O :  1.30  448O :  1.30
  196O :  1.29  349O :  1.26   16O :  1.25   97O :  1.23   85O :  1.21   82O :  1.20  130O :  1.19  403O :  1.19  229O :  1.18  439O :  1.18  259O :  1.16  148O :  1.10
  520O :  1.10   88O :  1.10  526O :  1.07  469O :  1.07  454O :  1.03  199O :  1.01  517O :  0.99  463O :  0.95  286O :  0.88   25O :  0.86  256O :  0.85  340O :  0.84
   73O :  0.84  145O :  0.83  139O :  0.81   31O :  0.81  343O :  0.81  214O :  0.78  253O :  0.78  400O :  0.76   78H :  0.75  208O :  0.72  328O :  0.72   58O :  0.71
  247O :  0.71  319O :  0.70  298O :  0.69  187O :  0.69   61O :  0.68   79O :  0.68   34O :  0.67  409O :  0.65  334O :  0.65  373O :  0.64  118O :  0.63   67O :  0.63
  508O :  0.62  427O :  0.62  523O :  0.62  238O :  0.62  235O :  0.60  310O :  0.60  496O :  0.56  442O :  0.56   37O :  0.55  289O :  0.55  166O :  0.53  457O :  0.53
   19O :  0.51  346O :  0.51  274O :  0.51   52O :  0.50  121O :  0.50  280O :  0.50  163O :  0.49  220O :  0.48  249H :  0.48  529O :  0.47  391O :  0.47  172O :  0.47
  460O :  0.46  184O :  0.45  502O :  0.44   94O :  0.44  181O :  0.43  406O :  0.42  322O :  0.41  421O :  0.40  143H :  0.39  202O :  0.39  241O :  0.39  307O :  0.38
  292O :  0.38   49O :  0.38  134H :  0.36  337O :  0.36  424O :  0.35  244O :  0.35  262O :  0.34  397O :  0.34    7O :  0.33  277O :  0.33   22O :  0.32  295O :  0.32
  445O :  0.32  193O :  0.32  415O :  0.31  352O :  0.30  472O :  0.29  514O :  0.29  205O :  0.29   60H :  0.28  169O :  0.28   43O :  0.27   40O :  0.27  124O :  0.25
  157O :  0.25  412O :  0.25    4O :  0.25  484O :  0.24  127O :  0.24  505O :  0.24  436O :  0.23  418O :  0.23  141H :  0.23  151O :  0.23  511O :  0.22  177H :  0.22
   28O :  0.22  331O :  0.22  315H :  0.22  490O :  0.20  379O :  0.20  499O :  0.19  149H :  0.19   91O :  0.19  481O :  0.19  364O :  0.19   99H :  0.19  250O :  0.19
   70O :  0.18  174H :  0.18  487O :  0.18  312H :  0.17  394O :  0.17  478O :  0.16  108H :  0.16  227H :  0.16  430O :  0.16  388O :  0.16  288H :  0.15  223O :  0.15
  176H :  0.15  182H :  0.15  178O :  0.15  493O :  0.14  115O :  0.14    3H :  0.14  370O :  0.14  283O :  0.14  204H :  0.14  291H :  0.13  109O :  0.13  248H :  0.13
  212H :  0.13  376O :  0.13  521H :  0.12  188H :  0.12  423H :  0.11  200H :  0.11  287H :  0.11   69H :  0.11  231H :  0.11  327H :  0.11  477H :  0.11  103O :  0.11
  268O :  0.10  387H :  0.10  425H :  0.10  444H :  0.09  301O :  0.09  462H :  0.09  451O :  0.09  161H :  0.09  105H :  0.09   83H :  0.09  399H :  0.09  159H :  0.08
    2H :  0.08   81H :  0.08  217O :  0.08  314H :  0.08  112O :  0.08  405H :  0.07
   12 LP   *******   0.01  -5.24394  13.14639  -8.67571   46O :  3.70  133O :  3.05  142O :  2.21  175O :  2.19   76O :  2.01  136O :  1.89  325O :  1.85  232O :  1.81  475O :  1.73  313O :  1.67  211O :  1.54   64O :  1.54
  226O :  1.51    1O :  1.48  385O :  1.47  160O :  1.46  100O :  1.44   10O :  1.42  466O :  1.33  106O :  1.29  271O :  1.27  304O :  1.26  448O :  1.26  196O :  1.25
  349O :  1.22   16O :  1.22   97O :  1.19   85O :  1.17  130O :  1.15   82O :  1.15  403O :  1.15  229O :  1.15  439O :  1.14  259O :  1.12  520O :  1.07   88O :  1.07
  148O :  1.06  526O :  1.04  469O :  1.04  454O :  0.98  199O :  0.98  517O :  0.96  463O :  0.92  286O :  0.85   25O :  0.84  256O :  0.82  340O :  0.81   73O :  0.81
  145O :  0.80  139O :  0.78   31O :  0.78  343O :  0.78  214O :  0.76  253O :  0.76  400O :  0.73   78H :  0.73  208O :  0.70  328O :  0.69   58O :  0.69  247O :  0.69
  319O :  0.68  298O :  0.67  187O :  0.67   61O :  0.66   79O :  0.66   34O :  0.65  409O :  0.63  334O :  0.63  373O :  0.62  118O :  0.61   67O :  0.61  508O :  0.61
  523O :  0.60  238O :  0.60  235O :  0.58  310O :  0.58  427O :  0.55  496O :  0.54  442O :  0.54   37O :  0.54  289O :  0.53  166O :  0.51  457O :  0.51   19O :  0.50
  346O :  0.49  274O :  0.49   52O :  0.49  121O :  0.48  280O :  0.48  163O :  0.48   66H :  0.48  220O :  0.47  249H :  0.46  529O :  0.46  391O :  0.46  172O :  0.45
  460O :  0.45  184O :  0.44  502O :  0.43   94O :  0.43  181O :  0.42  406O :  0.41  322O :  0.40  421O :  0.39  143H :  0.38  202O :  0.38  241O :  0.38  307O :  0.37
  292O :  0.37   49O :  0.37  337O :  0.35  424O :  0.34  134H :  0.34  244O :  0.34  262O :  0.33  397O :  0.33    7O :  0.32  277O :  0.32   22O :  0.31  295O :  0.31
  445O :  0.31  193O :  0.31  415O :  0.30  352O :  0.29  472O :  0.28  514O :  0.28  205O :  0.28   60H :  0.27   43O :  0.27  169O :  0.27   40O :  0.26  124O :  0.25
  157O :  0.24  412O :  0.24    4O :  0.24  484O :  0.23  127O :  0.23  505O :  0.23  436O :  0.23  418O :  0.23  141H :  0.22  151O :  0.22  511O :  0.22  177H :  0.21
   28O :  0.21  331O :  0.21  315H :  0.21  490O :  0.19  379O :  0.19  499O :  0.19  149H :  0.19   91O :  0.19  481O :  0.19  364O :  0.18   99H :  0.18  250O :  0.18
   70O :  0.18  174H :  0.17  487O :  0.17  312H :  0.17  394O :  0.17  478O :  0.16  227H :  0.16  108H :  0.16  430O :  0.16  388O :  0.15  288H :  0.15  223O :  0.15
  176H :  0.14  182H :  0.14  178O :  0.14  493O :  0.14  115O :  0.14    3H :  0.13  370O :  0.13  283O :  0.13  204H :  0.13  291H :  0.13  109O :  0.13  248H :  0.12
  212H :  0.12  376O :  0.12  521H :  0.12  188H :  0.11  423H :  0.11  287H :  0.11   69H :  0.11  231H :  0.11  200H :  0.11  327H :  0.11  477H :  0.10  103O :  0.10
  387H :  0.10  268O :  0.10  425H :  0.09  444H :  0.09  301O :  0.09  462H :  0.09  451O :  0.09  161H :  0.09  105H :  0.09  399H :  0.08   83H :  0.08  159H :  0.08
    2H :  0.08   81H :  0.08  217O :  0.07  314H :  0.07  112O :  0.07
   13 LP   *******   0.01  -1.30056  10.16063  -4.10870  136O :  3.84  133O :  3.01  142O :  2.18  175O :  2.16   76O :  1.98  325O :  1.82  232O :  1.78  475O :  1.69  313O :  1.65  211O :  1.52   64O :  1.51   46O :  1.51
  226O :  1.48    1O :  1.46  385O :  1.45  160O :  1.43  100O :  1.42   10O :  1.39  466O :  1.31  106O :  1.27  271O :  1.25  304O :  1.24  448O :  1.24  196O :  1.23
  349O :  1.20   16O :  1.20   97O :  1.17   85O :  1.15   82O :  1.15  130O :  1.14  403O :  1.13  229O :  1.13  439O :  1.13  259O :  1.10  520O :  1.05   88O :  1.05
  148O :  1.04  526O :  1.02  469O :  1.02  454O :  0.98  199O :  0.96  517O :  0.95  463O :  0.91  286O :  0.84   25O :  0.82  256O :  0.81  340O :  0.80   73O :  0.80
  145O :  0.79  139O :  0.77   31O :  0.77  343O :  0.77  214O :  0.75  253O :  0.75  400O :  0.72   78H :  0.72  208O :  0.69  328O :  0.68   58O :  0.68  247O :  0.68
  319O :  0.67  298O :  0.66  187O :  0.66   79O :  0.65   34O :  0.64   61O :  0.64  409O :  0.62  334O :  0.62  373O :  0.61  118O :  0.60   67O :  0.60  508O :  0.60
  523O :  0.59  238O :  0.59  235O :  0.58  310O :  0.57  427O :  0.54  496O :  0.53  442O :  0.53   37O :  0.53  289O :  0.52  166O :  0.50  457O :  0.50   19O :  0.49
  346O :  0.48  274O :  0.48   52O :  0.48  121O :  0.47  280O :  0.47  163O :  0.47   66H :  0.47  220O :  0.46  249H :  0.46  529O :  0.45  391O :  0.45  172O :  0.44
  460O :  0.44  184O :  0.43  502O :  0.42   94O :  0.42  181O :  0.41  406O :  0.40  322O :  0.39  421O :  0.38  143H :  0.38  202O :  0.38  241O :  0.37  307O :  0.37
  292O :  0.37   49O :  0.36  337O :  0.34  424O :  0.33  134H :  0.33  244O :  0.33  262O :  0.33  397O :  0.32    7O :  0.31  277O :  0.31   22O :  0.31  295O :  0.31
  193O :  0.30  445O :  0.30  415O :  0.30  352O :  0.29  472O :  0.28  514O :  0.28  205O :  0.27   60H :  0.27  169O :  0.26   43O :  0.26   40O :  0.26  124O :  0.24
  157O :  0.24  412O :  0.24    4O :  0.24  484O :  0.23  127O :  0.23  505O :  0.23  436O :  0.22  418O :  0.22  141H :  0.22  151O :  0.22  511O :  0.21  177H :  0.21
   28O :  0.21  331O :  0.21  315H :  0.21  490O :  0.19  379O :  0.19  499O :  0.19  149H :  0.18   91O :  0.18  481O :  0.18  364O :  0.18   99H :  0.18  250O :  0.18
   70O :  0.17  174H :  0.17  487O :  0.17  312H :  0.17  394O :  0.16  227H :  0.16  478O :  0.16  108H :  0.16  430O :  0.15  388O :  0.15  288H :  0.15  223O :  0.14
  176H :  0.14  182H :  0.14  178O :  0.14  493O :  0.14  115O :  0.14    3H :  0.13  370O :  0.13  283O :  0.13  204H :  0.13  291H :  0.13  109O :  0.12  248H :  0.12
  212H :  0.12  376O :  0.12  521H :  0.12  188H :  0.11  423H :  0.11  287H :  0.11   69H :  0.11  231H :  0.11  200H :  0.11  327H :  0.10  103O :  0.10  387H :  0.10
  268O :  0.10  477H :  0.09  425H :  0.09  444H :  0.09  301O :  0.09  462H :  0.09  451O :  0.09  161H :  0.09  105H :  0.08  399H :  0.08   83H :  0.08  159H :  0.08
    2H :  0.08   81H :  0.08  217O :  0.07  314H :  0.07  112O :  0.07   48H :  0.07
   14 LP   *******   0.01  -8.14612  -0.25979   2.29734  142O :  3.88  133O :  3.00  175O :  2.16   76O :  1.97  136O :  1.86  325O :  1.82  232O :  1.78  475O :  1.70  313O :  1.65  211O :  1.51   64O :  1.51   46O :  1.51
  226O :  1.48    1O :  1.46  385O :  1.45  160O :  1.43  100O :  1.42   10O :  1.39  466O :  1.31  106O :  1.27  271O :  1.25  304O :  1.24  448O :  1.24  196O :  1.23
  349O :  1.20   16O :  1.20   97O :  1.18   85O :  1.15   82O :  1.15  130O :  1.13  403O :  1.13  229O :  1.13  439O :  1.12  259O :  1.10   88O :  1.05  520O :  1.05
  148O :  1.04  526O :  1.02  469O :  1.02  454O :  0.98  199O :  0.96  517O :  0.94  463O :  0.91  286O :  0.84   25O :  0.82  256O :  0.81  340O :  0.80   73O :  0.80
  145O :  0.79   31O :  0.77  139O :  0.77  343O :  0.77  214O :  0.75  253O :  0.75  400O :  0.72   78H :  0.72  328O :  0.68   58O :  0.68  247O :  0.68  208O :  0.67
  319O :  0.67  298O :  0.66  187O :  0.66   61O :  0.65   79O :  0.64   34O :  0.64  334O :  0.62  409O :  0.62  373O :  0.61  118O :  0.60   67O :  0.60  508O :  0.60
  523O :  0.59  238O :  0.59  235O :  0.57  310O :  0.56  427O :  0.54  496O :  0.53  442O :  0.53   37O :  0.53  289O :  0.52  166O :  0.50  457O :  0.50   19O :  0.49
  346O :  0.48  274O :  0.48   52O :  0.48  121O :  0.47  280O :  0.47  163O :  0.47   66H :  0.47  220O :  0.46  249H :  0.45  529O :  0.45  391O :  0.45  172O :  0.44
  460O :  0.44  502O :  0.42  184O :  0.42   94O :  0.42  181O :  0.41  406O :  0.40  322O :  0.39  421O :  0.38  202O :  0.37  241O :  0.37  307O :  0.37  292O :  0.37
   49O :  0.36  337O :  0.34  424O :  0.33  134H :  0.33  244O :  0.33  143H :  0.33  262O :  0.33  397O :  0.32    7O :  0.31  277O :  0.31   22O :  0.31  295O :  0.31
  445O :  0.30  193O :  0.30  415O :  0.30  352O :  0.29  472O :  0.28  514O :  0.28  205O :  0.27   60H :  0.27  169O :  0.26   43O :  0.26   40O :  0.26  124O :  0.24
  157O :  0.24  412O :  0.24    4O :  0.24  484O :  0.23  127O :  0.23  505O :  0.23  436O :  0.22  418O :  0.22  141H :  0.22  151O :  0.22  511O :  0.21  177H :  0.21
   28O :  0.21  331O :  0.21  315H :  0.21  490O :  0.19  379O :  0.19  499O :  0.19  149H :  0.18   91O :  0.18  481O :  0.18  364O :  0.18   99H :  0.18  250O :  0.18
   70O :  0.17  174H :  0.17  487O :  0.17  394O :  0.16  388O :  0.16  227H :  0.16  478O :  0.16  108H :  0.16  430O :  0.15  312H :  0.15  288H :  0.15  223O :  0.14
  176H :  0.14  178O :  0.14  493O :  0.14  115O :  0.14  182H :  0.14    3H :  0.13  370O :  0.13  204H :  0.13  283O :  0.13  291H :  0.13  109O :  0.12  248H :  0.12
  212H :  0.12  376O :  0.12  521H :  0.12  188H :  0.11  423H :  0.11  287H :  0.11   69H :  0.11  231H :  0.11  200H :  0.11  327H :  0.10  477H :  0.10  103O :  0.10
  387H :  0.10  268O :  0.10  425H :  0.09  444H :  0.09  301O :  0.09  462H :  0.09  451O :  0.09  105H :  0.08  161H :  0.08  399H :  0.08   83H :  0.08  159H :  0.08
    2H :  0.08   81H :  0.08  217O :  0.07  314H :  0.07  112O :  0.07
   15 LP   *******   0.01  10.58494  -3.17553  -3.32808  226O :  3.47  133O :  2.95  142O :  2.14  175O :  2.12   76O :  1.94  136O :  1.83  325O :  1.79  232O :  1.75  475O :  1.67  313O :  1.62   64O :  1.49   46O :  1.48
  211O :  1.44    1O :  1.43  385O :  1.42  160O :  1.41  100O :  1.39   10O :  1.37  466O :  1.29  106O :  1.25  271O :  1.23  304O :  1.22  448O :  1.21  196O :  1.19
  349O :  1.18   16O :  1.18   97O :  1.16   85O :  1.13   82O :  1.13  130O :  1.12  403O :  1.11  229O :  1.11  439O :  1.10  259O :  1.09  520O :  1.03   88O :  1.03
  148O :  1.02  526O :  1.01  469O :  1.00  454O :  0.97  199O :  0.93  517O :  0.93  463O :  0.89  286O :  0.83   25O :  0.81  256O :  0.80  340O :  0.79   73O :  0.79
  145O :  0.78  139O :  0.76   31O :  0.76  343O :  0.76  214O :  0.74  253O :  0.73  400O :  0.71   78H :  0.71   58O :  0.68  208O :  0.68  328O :  0.67  247O :  0.67
  319O :  0.66  298O :  0.65  187O :  0.65   61O :  0.64   79O :  0.63   34O :  0.63  409O :  0.61  334O :  0.61  373O :  0.60  118O :  0.60   67O :  0.59  508O :  0.59
  523O :  0.58  238O :  0.58  235O :  0.57  310O :  0.56  427O :  0.53  496O :  0.52  442O :  0.52   37O :  0.52  289O :  0.51  166O :  0.50  457O :  0.49   19O :  0.48
  346O :  0.47  274O :  0.47   52O :  0.47  121O :  0.47  280O :  0.47  163O :  0.46   66H :  0.46  220O :  0.45  249H :  0.45  529O :  0.44  391O :  0.44  460O :  0.44
  172O :  0.44  184O :  0.42  502O :  0.42   94O :  0.41  181O :  0.41  406O :  0.40  322O :  0.38  421O :  0.37  143H :  0.37  202O :  0.37  241O :  0.36  307O :  0.36
  292O :  0.36   49O :  0.36  337O :  0.33  424O :  0.33  134H :  0.33  244O :  0.32  262O :  0.32  397O :  0.31    7O :  0.31  277O :  0.31   22O :  0.30  193O :  0.30
  295O :  0.30  445O :  0.30  415O :  0.29  352O :  0.28  472O :  0.28  514O :  0.27  205O :  0.27   60H :  0.27  169O :  0.26   43O :  0.26   40O :  0.25  124O :  0.24
  157O :  0.24  412O :  0.24    4O :  0.23  484O :  0.23  505O :  0.22  127O :  0.22  436O :  0.22  418O :  0.22  141H :  0.21  151O :  0.21  511O :  0.21  177H :  0.21
   28O :  0.20  331O :  0.20  315H :  0.20  490O :  0.19  379O :  0.18  499O :  0.18  149H :  0.18   91O :  0.18  481O :  0.18  364O :  0.18   99H :  0.17  250O :  0.17
   70O :  0.17  174H :  0.17  487O :  0.17  312H :  0.16  394O :  0.16  478O :  0.15  108H :  0.15  430O :  0.15  388O :  0.15  288H :  0.14  223O :  0.14  227H :  0.14
  176H :  0.14  182H :  0.14  178O :  0.14  493O :  0.13  115O :  0.13    3H :  0.13  370O :  0.13  283O :  0.13  204H :  0.13  291H :  0.13  109O :  0.12  248H :  0.12
  376O :  0.12  521H :  0.12  188H :  0.11  423H :  0.11  287H :  0.11   69H :  0.11  231H :  0.10  200H :  0.10  327H :  0.10  477H :  0.10  103O :  0.10  268O :  0.09
  387H :  0.09  462H :  0.09  425H :  0.09  444H :  0.09  301O :  0.09  451O :  0.08  161H :  0.08  105H :  0.08  399H :  0.08   83H :  0.08  159H :  0.08    2H :  0.07
   81H :  0.07  217O :  0.07  314H :  0.07  112O :  0.07
   16 LP   *******   0.01  11.64625   7.53477  -7.06088  349O :  3.07  133O :  2.87  142O :  2.08  175O :  2.06   76O :  1.89  136O :  1.78  325O :  1.74  232O :  1.70  475O :  1.63  313O :  1.57  211O :  1.45   64O :  1.44
   46O :  1.44  226O :  1.42    1O :  1.39  385O :  1.38  160O :  1.37  100O :  1.35   10O :  1.33  466O :  1.25  106O :  1.21  271O :  1.19  304O :  1.18  448O :  1.18
  196O :  1.17   16O :  1.14   97O :  1.12   85O :  1.10   82O :  1.10  130O :  1.08  403O :  1.08  229O :  1.08  439O :  1.07  259O :  1.05  520O :  1.00   88O :  1.00
  148O :  0.99  526O :  0.98  469O :  0.97  454O :  0.94  199O :  0.92  517O :  0.90  463O :  0.86  286O :  0.80   25O :  0.78  256O :  0.78  340O :  0.76   73O :  0.76
  145O :  0.76  139O :  0.74   31O :  0.74  343O :  0.73  214O :  0.71  253O :  0.71  400O :  0.69   78H :  0.69  208O :  0.66  328O :  0.65   58O :  0.65  247O :  0.65
  319O :  0.64  298O :  0.63  187O :  0.63   61O :  0.62   79O :  0.62   34O :  0.61  409O :  0.59  334O :  0.59  373O :  0.58  118O :  0.58   67O :  0.57  508O :  0.57
  523O :  0.56  238O :  0.55  235O :  0.55  310O :  0.55  427O :  0.52  496O :  0.51  442O :  0.51   37O :  0.50  289O :  0.50  166O :  0.48  457O :  0.48   19O :  0.47
  346O :  0.46  274O :  0.46   52O :  0.46  121O :  0.45  280O :  0.45  163O :  0.45   66H :  0.45  220O :  0.44  249H :  0.43  529O :  0.43  391O :  0.43  460O :  0.42
  172O :  0.42  184O :  0.41  502O :  0.40   94O :  0.40  181O :  0.39  406O :  0.39  322O :  0.37  421O :  0.36  143H :  0.36  202O :  0.36  241O :  0.35  307O :  0.35
  292O :  0.35   49O :  0.34  337O :  0.32  424O :  0.32  134H :  0.32  244O :  0.32  262O :  0.31  397O :  0.31    7O :  0.30  277O :  0.30   22O :  0.29  295O :  0.29
  193O :  0.29  445O :  0.29  415O :  0.28  352O :  0.27  472O :  0.27  514O :  0.26  205O :  0.26   60H :  0.26  169O :  0.25   43O :  0.25   40O :  0.24  124O :  0.23
  157O :  0.23  412O :  0.23    4O :  0.23  484O :  0.22  127O :  0.22  505O :  0.22  436O :  0.21  418O :  0.21  141H :  0.21  151O :  0.21  511O :  0.20  177H :  0.20
   28O :  0.20  331O :  0.20  315H :  0.20  490O :  0.18  499O :  0.18  149H :  0.18   91O :  0.18  481O :  0.17  364O :  0.17  379O :  0.17   99H :  0.17  250O :  0.17
   70O :  0.17  174H :  0.16  487O :  0.16  312H :  0.16  394O :  0.16  227H :  0.15  108H :  0.15  478O :  0.15  430O :  0.15  388O :  0.14  288H :  0.14  223O :  0.14
  176H :  0.13  182H :  0.13  178O :  0.13  493O :  0.13  115O :  0.13    3H :  0.13  370O :  0.13  283O :  0.12  204H :  0.12  291H :  0.12  109O :  0.12  248H :  0.12
  212H :  0.12  376O :  0.11  521H :  0.11  188H :  0.11  423H :  0.10  287H :  0.10   69H :  0.10  231H :  0.10  200H :  0.10  327H :  0.10  477H :  0.10  103O :  0.10
  387H :  0.09  268O :  0.09  425H :  0.09  444H :  0.09  462H :  0.08  301O :  0.08  451O :  0.08  161H :  0.08  105H :  0.08  399H :  0.08   83H :  0.08  159H :  0.08
    2H :  0.07   81H :  0.07
   17 LP   *******   0.01   1.11424 -12.15021  -2.41386  106O :  2.87  133O :  2.83  142O :  2.05  175O :  2.03   76O :  1.86  136O :  1.75  325O :  1.71  232O :  1.68  475O :  1.60  313O :  1.55  211O :  1.43   64O :  1.43
   46O :  1.42  226O :  1.40    1O :  1.37  385O :  1.37  160O :  1.35   10O :  1.31  466O :  1.24  100O :  1.21  271O :  1.17  304O :  1.17  448O :  1.17  196O :  1.16
  349O :  1.13   16O :  1.13   97O :  1.11   85O :  1.09   82O :  1.08  130O :  1.07  403O :  1.07  229O :  1.06  439O :  1.06  259O :  1.04  520O :  0.99   88O :  0.99
  148O :  0.98  526O :  0.96  469O :  0.96  454O :  0.92  199O :  0.90  517O :  0.89  463O :  0.85  108H :  0.79  286O :  0.79   25O :  0.77  256O :  0.76  340O :  0.75
   73O :  0.75  145O :  0.75  139O :  0.73   31O :  0.73  343O :  0.72  214O :  0.70  253O :  0.70  400O :  0.68   78H :  0.68  208O :  0.65  328O :  0.64   58O :  0.64
  247O :  0.64  319O :  0.63  298O :  0.62  187O :  0.62   61O :  0.61   79O :  0.61   34O :  0.60  409O :  0.59  334O :  0.59  373O :  0.57  118O :  0.57   67O :  0.56
  508O :  0.56  523O :  0.55  238O :  0.55  235O :  0.54  310O :  0.54  427O :  0.51  496O :  0.50  442O :  0.50   37O :  0.50  289O :  0.49  166O :  0.48  457O :  0.47
   19O :  0.46  346O :  0.45  274O :  0.45   52O :  0.45  121O :  0.45  280O :  0.45  163O :  0.44   66H :  0.44  220O :  0.44  249H :  0.43  529O :  0.42  391O :  0.42
  172O :  0.42  460O :  0.42  184O :  0.40  502O :  0.40   94O :  0.39  181O :  0.39  406O :  0.38  322O :  0.37  421O :  0.36  143H :  0.35  202O :  0.35  241O :  0.35
  307O :  0.35  292O :  0.34   49O :  0.34  337O :  0.32  424O :  0.31  134H :  0.31  244O :  0.31  262O :  0.31  397O :  0.30    7O :  0.30  277O :  0.30   22O :  0.29
  295O :  0.29  193O :  0.29  445O :  0.29  415O :  0.28  352O :  0.27  472O :  0.26  514O :  0.26  205O :  0.26   60H :  0.25  169O :  0.25   43O :  0.25   40O :  0.24
  124O :  0.23  157O :  0.23  412O :  0.23    4O :  0.22  484O :  0.22  505O :  0.21  127O :  0.21  436O :  0.21  418O :  0.21  141H :  0.20  151O :  0.20  511O :  0.20
  177H :  0.20   28O :  0.19  331O :  0.19  315H :  0.19  490O :  0.18  379O :  0.18  499O :  0.18  149H :  0.17   91O :  0.17  481O :  0.17  364O :  0.17   99H :  0.17
  250O :  0.17   70O :  0.16  174H :  0.16  487O :  0.16  312H :  0.16  394O :  0.15  478O :  0.15  227H :  0.15  430O :  0.15  388O :  0.14  288H :  0.14  223O :  0.14
  176H :  0.13  182H :  0.13  178O :  0.13  493O :  0.13  115O :  0.13    3H :  0.12  370O :  0.12  291H :  0.12  283O :  0.12  204H :  0.12  109O :  0.12  248H :  0.11
  212H :  0.11  376O :  0.11  521H :  0.11  188H :  0.11  423H :  0.10  287H :  0.10   69H :  0.10  231H :  0.10  200H :  0.10  327H :  0.10  477H :  0.10  103O :  0.10
  387H :  0.09  268O :  0.09  425H :  0.09  444H :  0.09  301O :  0.08  462H :  0.08  451O :  0.08  161H :  0.08  105H :  0.08  399H :  0.08   83H :  0.08  159H :  0.08
    2H :  0.07   81H :  0.07
   18 LP   *******   0.01  14.36888  -5.13841  -2.79095  211O :  3.47  133O :  2.83  142O :  2.05  175O :  2.03   76O :  1.86  136O :  1.75  325O :  1.71  232O :  1.68  475O :  1.60  313O :  1.55   64O :  1.43   46O :  1.42
    1O :  1.37  226O :  1.37  385O :  1.37  160O :  1.35  100O :  1.33   10O :  1.31  466O :  1.24  106O :  1.19  271O :  1.18  304O :  1.17  448O :  1.17  196O :  1.16
  349O :  1.13   16O :  1.13   97O :  1.11   85O :  1.09   82O :  1.08  130O :  1.07  403O :  1.07  229O :  1.06  259O :  1.04  439O :  1.03  520O :  0.99   88O :  0.99
  148O :  0.98  526O :  0.96  469O :  0.96  454O :  0.92  199O :  0.92  517O :  0.89  463O :  0.85  286O :  0.79   25O :  0.77  256O :  0.76  340O :  0.75   73O :  0.75
  145O :  0.75  139O :  0.73   31O :  0.73  343O :  0.72  214O :  0.70  253O :  0.70  400O :  0.68   78H :  0.68  208O :  0.65  328O :  0.64  247O :  0.64  319O :  0.63
   58O :  0.63  298O :  0.62  187O :  0.62   61O :  0.61   79O :  0.61   34O :  0.60  409O :  0.59  334O :  0.59  373O :  0.57  118O :  0.57   67O :  0.56  508O :  0.56
  523O :  0.55  238O :  0.55  235O :  0.54  310O :  0.54  427O :  0.51  496O :  0.50  442O :  0.50   37O :  0.50  289O :  0.49  166O :  0.48  457O :  0.47   19O :  0.46
  346O :  0.45  274O :  0.45   52O :  0.45  121O :  0.45  280O :  0.45  163O :  0.44   66H :  0.44  220O :  0.44  249H :  0.43  529O :  0.42  391O :  0.42  172O :  0.42
  460O :  0.42  184O :  0.40  502O :  0.40   94O :  0.39  181O :  0.39  406O :  0.38  322O :  0.37  421O :  0.36  143H :  0.35  202O :  0.35  241O :  0.35  307O :  0.35
  292O :  0.34   49O :  0.34  337O :  0.33  424O :  0.31  134H :  0.31  244O :  0.31  262O :  0.31  397O :  0.30    7O :  0.30  277O :  0.30  295O :  0.29  445O :  0.29
  193O :  0.29   22O :  0.28  415O :  0.28  352O :  0.27  472O :  0.26  514O :  0.26  205O :  0.26   60H :  0.26  169O :  0.25   43O :  0.25   40O :  0.24  124O :  0.23
  157O :  0.23  412O :  0.23    4O :  0.22  484O :  0.22  127O :  0.21  505O :  0.21  436O :  0.21  418O :  0.21  141H :  0.20  151O :  0.20  511O :  0.20  177H :  0.20
   28O :  0.19  331O :  0.19  315H :  0.19  490O :  0.18  379O :  0.18  499O :  0.18  149H :  0.17   91O :  0.17  481O :  0.17  364O :  0.17   70O :  0.17   99H :  0.17
  250O :  0.17  174H :  0.16  487O :  0.16  312H :  0.16  394O :  0.15  227H :  0.15  478O :  0.15  108H :  0.15  430O :  0.15  388O :  0.14  288H :  0.14  223O :  0.14
  176H :  0.13  182H :  0.13  178O :  0.13  493O :  0.13  115O :  0.13    3H :  0.12  370O :  0.12  283O :  0.12  204H :  0.12  291H :  0.12  109O :  0.12  248H :  0.11
  376O :  0.11  521H :  0.11  188H :  0.11  423H :  0.10  287H :  0.10  231H :  0.10   69H :  0.10  200H :  0.10  327H :  0.10  212H :  0.10  477H :  0.10  103O :  0.10
  387H :  0.09  268O :  0.09  425H :  0.09  444H :  0.09  301O :  0.08  462H :  0.08  451O :  0.08  161H :  0.08  105H :  0.08  399H :  0.08   83H :  0.08  159H :  0.08
   72H :  0.07    2H :  0.07   81H :  0.07
   19 LP   *******   0.01   6.74798   4.81815   0.98058  448O :  3.14  133O :  2.79  142O :  2.03  175O :  2.01   76O :  1.84  136O :  1.73  325O :  1.71  232O :  1.66  475O :  1.58  313O :  1.53  211O :  1.41   64O :  1.41
   46O :  1.40  226O :  1.38    1O :  1.36  385O :  1.35  160O :  1.33  100O :  1.32   10O :  1.30  466O :  1.22  106O :  1.18  271O :  1.16  304O :  1.15  349O :  1.12
   16O :  1.11  196O :  1.11   97O :  1.10   85O :  1.07   82O :  1.07  130O :  1.06  403O :  1.06  229O :  1.05  439O :  1.05  259O :  1.03  520O :  0.98   88O :  0.98
  148O :  0.97  526O :  0.95  469O :  0.94  454O :  0.91  199O :  0.89  517O :  0.88  463O :  0.84  286O :  0.78   25O :  0.77  256O :  0.75  340O :  0.75   73O :  0.75
  145O :  0.74  139O :  0.72   31O :  0.72  343O :  0.72  214O :  0.70  253O :  0.69  400O :  0.67   78H :  0.67  208O :  0.64  328O :  0.64   58O :  0.63  247O :  0.63
  319O :  0.62   34O :  0.62  298O :  0.61  187O :  0.61   61O :  0.60   79O :  0.60  334O :  0.58  409O :  0.58  373O :  0.57  118O :  0.56   67O :  0.56  508O :  0.55
  238O :  0.55  523O :  0.55  235O :  0.54  310O :  0.53  427O :  0.51  496O :  0.50  442O :  0.49   37O :  0.49  289O :  0.49  166O :  0.47  457O :  0.47   19O :  0.45
  346O :  0.45  274O :  0.45   52O :  0.45  121O :  0.44  280O :  0.44  163O :  0.44   66H :  0.44  220O :  0.43  249H :  0.42  529O :  0.42  391O :  0.42  172O :  0.41
  460O :  0.41  184O :  0.40  502O :  0.39   94O :  0.39  181O :  0.38  406O :  0.38  322O :  0.36  421O :  0.35  143H :  0.35  202O :  0.35  241O :  0.34  307O :  0.34
  292O :  0.34   49O :  0.34  337O :  0.32  424O :  0.31  134H :  0.31  244O :  0.31  262O :  0.30  397O :  0.30    7O :  0.29  277O :  0.29   22O :  0.29  295O :  0.29
  445O :  0.28  193O :  0.28  415O :  0.28  352O :  0.27  472O :  0.26  514O :  0.26  205O :  0.25   60H :  0.25   43O :  0.24  169O :  0.24   40O :  0.24  124O :  0.23
  157O :  0.22  412O :  0.22    4O :  0.22  484O :  0.22  505O :  0.21  127O :  0.21  436O :  0.21  418O :  0.21  141H :  0.20  151O :  0.20  511O :  0.20  177H :  0.19
  331O :  0.19   28O :  0.19  315H :  0.19  490O :  0.18  379O :  0.17  499O :  0.17  149H :  0.17   91O :  0.17  481O :  0.17  364O :  0.17   99H :  0.17  250O :  0.17
   70O :  0.16  174H :  0.16  487O :  0.16  312H :  0.15  394O :  0.15  478O :  0.15  108H :  0.15  227H :  0.15  430O :  0.14  388O :  0.14  288H :  0.14  223O :  0.13
  176H :  0.13  182H :  0.13  178O :  0.13  115O :  0.13  493O :  0.13  327H :  0.13    3H :  0.12  370O :  0.12  283O :  0.12  204H :  0.12  291H :  0.12  109O :  0.12
  248H :  0.11  212H :  0.11  376O :  0.11  521H :  0.11  188H :  0.11  423H :  0.10  287H :  0.10   69H :  0.10  231H :  0.10  200H :  0.10  477H :  0.10  103O :  0.10
  387H :  0.09  268O :  0.09  425H :  0.09  444H :  0.08  301O :  0.08  462H :  0.08  451O :  0.08  161H :  0.08  105H :  0.08   83H :  0.08  399H :  0.08  159H :  0.07
    2H :  0.07   81H :  0.07
   20 LP   *******   0.01  -0.31077 -12.90599   4.62441  304O :  2.94  133O :  2.73  142O :  1.98  175O :  1.97   76O :  1.80  136O :  1.69  325O :  1.66  232O :  1.62  475O :  1.55  313O :  1.50  211O :  1.38   64O :  1.38
   46O :  1.37  226O :  1.35    1O :  1.33  385O :  1.32  160O :  1.31  100O :  1.29   10O :  1.27  466O :  1.20  106O :  1.16  271O :  1.14  448O :  1.13  196O :  1.12
  349O :  1.10   16O :  1.09   97O :  1.07   85O :  1.05   82O :  1.05  130O :  1.03  403O :  1.03  229O :  1.03  439O :  1.02  259O :  1.01  520O :  0.96   88O :  0.96
  148O :  0.95  526O :  0.93  469O :  0.93  454O :  0.89  199O :  0.88  517O :  0.86  463O :  0.83  286O :  0.77   25O :  0.75  256O :  0.74  340O :  0.73   73O :  0.73
  145O :  0.72  139O :  0.70   31O :  0.70  343O :  0.70  214O :  0.68  253O :  0.68  400O :  0.66   78H :  0.65  208O :  0.63  328O :  0.62  247O :  0.62   58O :  0.62
  319O :  0.61  298O :  0.60  187O :  0.60   61O :  0.59   79O :  0.59   34O :  0.58  409O :  0.57  334O :  0.57  373O :  0.56  118O :  0.55   67O :  0.55  508O :  0.54
  523O :  0.54  238O :  0.54  235O :  0.52  310O :  0.52  427O :  0.49  496O :  0.49  442O :  0.48   37O :  0.48  289O :  0.48  166O :  0.46  457O :  0.46   19O :  0.44
  346O :  0.44  274O :  0.44   52O :  0.44  280O :  0.43  121O :  0.43  163O :  0.43   66H :  0.43  220O :  0.42  249H :  0.41  529O :  0.41  391O :  0.41  172O :  0.40
  460O :  0.40  184O :  0.39  502O :  0.39   94O :  0.38  181O :  0.38  406O :  0.37  322O :  0.36  421O :  0.35  307O :  0.35  143H :  0.34  202O :  0.34  241O :  0.34
  292O :  0.33   49O :  0.33  337O :  0.31  424O :  0.30  134H :  0.30  244O :  0.30  262O :  0.30  397O :  0.29    7O :  0.29   22O :  0.28  295O :  0.28  193O :  0.28
  277O :  0.28  445O :  0.28  415O :  0.27  352O :  0.26  472O :  0.26  514O :  0.25  205O :  0.25   60H :  0.25  169O :  0.24   43O :  0.24   40O :  0.23  124O :  0.22
  157O :  0.22  412O :  0.22    4O :  0.22  484O :  0.21  505O :  0.21  127O :  0.21  436O :  0.20  418O :  0.20  141H :  0.20  151O :  0.20  511O :  0.19  177H :  0.19
   28O :  0.19  331O :  0.19  315H :  0.19  490O :  0.17  379O :  0.17  499O :  0.17  149H :  0.17   91O :  0.17  481O :  0.17  364O :  0.17   99H :  0.16  250O :  0.16
   70O :  0.16  174H :  0.16  487O :  0.15  312H :  0.15  394O :  0.15  227H :  0.14  478O :  0.14  108H :  0.14  430O :  0.14  388O :  0.14  223O :  0.13  288H :  0.13
  176H :  0.13  182H :  0.13  178O :  0.13  493O :  0.12  115O :  0.12    3H :  0.12  370O :  0.12  283O :  0.12  204H :  0.12  291H :  0.12  109O :  0.11  212H :  0.11
  376O :  0.11  248H :  0.11  521H :  0.11  188H :  0.10  287H :  0.10  423H :  0.10   69H :  0.10  231H :  0.10  200H :  0.10  327H :  0.10  477H :  0.09  103O :  0.09
  387H :  0.09  268O :  0.09  425H :  0.08  444H :  0.08  301O :  0.08  462H :  0.08  451O :  0.08  161H :  0.08  105H :  0.08  399H :  0.08   83H :  0.08  159H :  0.07
   21 LP   *******   0.01   6.79307 -11.84187  -1.42290  229O :  2.83  133O :  2.69  142O :  1.95  175O :  1.93   76O :  1.77  136O :  1.67  325O :  1.63  232O :  1.60  475O :  1.53  313O :  1.48  211O :  1.36   64O :  1.36
   46O :  1.35  226O :  1.33    1O :  1.31  385O :  1.30  160O :  1.29  100O :  1.27   10O :  1.25  466O :  1.18  106O :  1.14  271O :  1.12  304O :  1.11  448O :  1.11
  196O :  1.11   16O :  1.10  349O :  1.08   97O :  1.06   85O :  1.03   82O :  1.03  130O :  1.02  403O :  1.02  439O :  1.01  259O :  0.99  520O :  0.94   88O :  0.94
  148O :  0.93  526O :  0.92  469O :  0.92  454O :  0.88  199O :  0.86  517O :  0.85  463O :  0.81  286O :  0.75   25O :  0.74  256O :  0.73  340O :  0.72   73O :  0.72
  145O :  0.71  139O :  0.69   31O :  0.69  343O :  0.69  214O :  0.67  253O :  0.67  400O :  0.65   78H :  0.64  208O :  0.62  328O :  0.61  247O :  0.61   58O :  0.61
  319O :  0.60  298O :  0.59  187O :  0.59   61O :  0.58   79O :  0.58   34O :  0.57  409O :  0.56  334O :  0.56  373O :  0.55  118O :  0.54   67O :  0.54  508O :  0.53
  523O :  0.53  238O :  0.53  235O :  0.52  310O :  0.51  427O :  0.49  496O :  0.48  442O :  0.48   37O :  0.47  289O :  0.47  166O :  0.45  457O :  0.45   19O :  0.44
  346O :  0.43  274O :  0.43   52O :  0.43  280O :  0.42  163O :  0.42   66H :  0.42  220O :  0.42  249H :  0.41  529O :  0.40  391O :  0.40  172O :  0.40  460O :  0.40
  184O :  0.38  502O :  0.38  121O :  0.38   94O :  0.38  181O :  0.37  406O :  0.36  322O :  0.35  421O :  0.34  143H :  0.34  202O :  0.34  241O :  0.33  307O :  0.33
  292O :  0.33   49O :  0.32  337O :  0.31  424O :  0.30  134H :  0.30  244O :  0.30  262O :  0.29  397O :  0.29    7O :  0.28  277O :  0.28  295O :  0.28  445O :  0.27
  193O :  0.27   22O :  0.27  415O :  0.27  352O :  0.26  472O :  0.25  514O :  0.25  205O :  0.25  169O :  0.24   43O :  0.24   60H :  0.24   40O :  0.23  124O :  0.22
  157O :  0.22  412O :  0.22    4O :  0.21  484O :  0.21  505O :  0.20  127O :  0.20  436O :  0.20  418O :  0.20  141H :  0.19  151O :  0.19  511O :  0.19  177H :  0.19
   28O :  0.19  331O :  0.19  315H :  0.18  490O :  0.17  379O :  0.17  499O :  0.17  149H :  0.17   91O :  0.16  481O :  0.16  364O :  0.16   99H :  0.16  250O :  0.16
   70O :  0.16  174H :  0.15  487O :  0.15  312H :  0.15  394O :  0.15  478O :  0.14  227H :  0.14  108H :  0.14  430O :  0.14  388O :  0.13  288H :  0.13  223O :  0.13
  176H :  0.13  182H :  0.13  178O :  0.13  493O :  0.12  115O :  0.12    3H :  0.12  370O :  0.12  283O :  0.12  204H :  0.12  291H :  0.11  109O :  0.11  248H :  0.11
  212H :  0.11  376O :  0.11  521H :  0.10  188H :  0.10  423H :  0.10  287H :  0.10   69H :  0.10  200H :  0.09  327H :  0.09  477H :  0.09  103O :  0.09  387H :  0.09
  268O :  0.09  425H :  0.08  444H :  0.08  301O :  0.08  462H :  0.08  451O :  0.08  161H :  0.08  105H :  0.08  399H :  0.07   83H :  0.07  231H :  0.07  159H :  0.07
   22 LP   *******   0.01   3.93639  -7.21300  -4.36316   10O :  2.59  133O :  2.56  142O :  1.86  175O :  1.84   76O :  1.74  136O :  1.59  325O :  1.55  232O :  1.52  475O :  1.45  313O :  1.41  211O :  1.29   64O :  1.29
   46O :  1.29  226O :  1.26    1O :  1.24  385O :  1.24  160O :  1.22  100O :  1.21  466O :  1.12  106O :  1.07  271O :  1.07  304O :  1.06  448O :  1.06  196O :  1.05
  349O :  1.03   16O :  1.02   97O :  1.00   85O :  0.98   82O :  0.98  130O :  0.97  403O :  0.97  229O :  0.96  439O :  0.96  259O :  0.94  520O :  0.90   88O :  0.90
  148O :  0.89  526O :  0.87  469O :  0.87  454O :  0.84  199O :  0.81  517O :  0.80  463O :  0.77   78H :  0.77  286O :  0.72   25O :  0.70  256O :  0.69  340O :  0.68
   73O :  0.68  145O :  0.68  139O :  0.66   31O :  0.66  343O :  0.66  214O :  0.64  253O :  0.64  400O :  0.62  208O :  0.59  328O :  0.58   58O :  0.58  247O :  0.58
  319O :  0.57  298O :  0.56  187O :  0.56   61O :  0.55   79O :  0.55   34O :  0.54  409O :  0.53  334O :  0.53  373O :  0.52  118O :  0.52   67O :  0.51  508O :  0.51
[...]
   144   1 h    0.886 --   142 o    0.816
   145   8 o    1.869 --   147 h    0.853   146 h    0.848
   146   1 h    0.893 --   145 o    0.848
   147   1 h    0.896 --   145 o    0.853
   148   8 o    1.860 --   149 h    0.845   150 h    0.809
   149   1 h    0.895 --   148 o    0.845
   150   1 h    0.879 --   148 o    0.809
   151   8 o    1.859 --   152 h    0.910   153 h    0.848
   152   1 h    0.913 --   151 o    0.910
   153   1 h    0.885 --   151 o    0.848
   154   8 o    1.837 --   155 h    0.875   156 h    0.828
   155   1 h    0.902 --   154 o    0.875
   156   1 h    0.885 --   154 o    0.828
   157   8 o    1.842 --   159 h    0.858   158 h    0.846
   158   1 h    0.894 --   157 o    0.846
   159   1 h    0.898 --   157 o    0.858
   160   8 o    1.854 --   161 h    0.831   162 h    0.824
   161   1 h    0.888 --   160 o    0.831
   162   1 h    0.877 --   160 o    0.824
   163   8 o    1.860 --   165 h    0.818   164 h    0.798
   164   1 h    0.880 --   163 o    0.798
   165   1 h    0.887 --   163 o    0.818
   166   8 o    1.890 --   167 h    0.856   168 h    0.821
   167   1 h    0.891 --   166 o    0.856
   168   1 h    0.881 --   166 o    0.821
   169   8 o    1.838 --   170 h    0.849   171 h    0.843
   170   1 h    0.893 --   169 o    0.849
   171   1 h    0.891 --   169 o    0.843
   172   8 o    1.873 --   174 h    0.832   173 h    0.829
   173   1 h    0.889 --   172 o    0.829
   174   1 h    0.887 --   172 o    0.832
   175   8 o    1.859 --   176 h    0.840   177 h    0.838
   176   1 h    0.886 --   175 o    0.840
   177   1 h    0.899 --   175 o    0.838
   178   8 o    1.922 --   179 h    0.825   180 h    0.801
   179   1 h    0.870 --   178 o    0.825
   180   1 h    0.881 --   178 o    0.801
   181   8 o    1.826 --   183 h    0.830   182 h    0.825
   182   1 h    0.887 --   181 o    0.825
   183   1 h    0.894 --   181 o    0.830
   184   8 o    1.876 --   186 h    0.831   185 h    0.826
   185   1 h    0.874 --   184 o    0.826
   186   1 h    0.889 --   184 o    0.831
   187   8 o    1.870 --   188 h    0.858   189 h    0.837
   188   1 h    0.896 --   187 o    0.858
   189   1 h    0.887 --   187 o    0.837
   190   8 o    1.847 --   191 h    0.857   192 h    0.809
   191   1 h    0.900 --   190 o    0.857
   192   1 h    0.886 --   190 o    0.809
   193   8 o    1.855 --   195 h    0.828   194 h    0.821
   194   1 h    0.884 --   193 o    0.821
   195   1 h    0.881 --   193 o    0.828
   196   8 o    1.877 --   198 h    0.833   197 h    0.798
   197   1 h    0.877 --   196 o    0.798
   198   1 h    0.892 --   196 o    0.833
   199   8 o    1.843 --   201 h    0.804   200 h    0.798
   200   1 h    0.876 --   199 o    0.798
   201   1 h    0.873 --   199 o    0.804
   202   8 o    1.873 --   203 h    0.859   204 h    0.817
   203   1 h    0.895 --   202 o    0.859
   204   1 h    0.874 --   202 o    0.817
   205   8 o    1.853 --   206 h    0.890   207 h    0.845
   206   1 h    0.903 --   205 o    0.890
   207   1 h    0.888 --   205 o    0.845
   208   8 o    1.846 --   210 h    0.827   209 h    0.814
   209   1 h    0.883 --   208 o    0.814
   210   1 h    0.877 --   208 o    0.827
   211   8 o    1.858 --   213 h    0.801   212 h    0.798
   212   1 h    0.872 --   211 o    0.798
   213   1 h    0.879 --   211 o    0.801
   214   8 o    1.844 --   216 h    0.843   215 h    0.841
   215   1 h    0.892 --   214 o    0.841
   216   1 h    0.891 --   214 o    0.843
   217   8 o    1.832 --   219 h    0.807   218 h    0.802
   218   1 h    0.876 --   217 o    0.802
   219   1 h    0.880 --   217 o    0.807
   220   8 o    1.877 --   221 h    0.888   222 h    0.809
   221   1 h    0.905 --   220 o    0.888
   222   1 h    0.871 --   220 o    0.809
   223   8 o    1.857 --   224 h    0.815   225 h    0.788
   224   1 h    0.878 --   223 o    0.815
   225   1 h    0.873 --   223 o    0.788
   226   8 o    1.865 --   228 h    0.828   227 h    0.807
   227   1 h    0.868 --   226 o    0.807
   228   1 h    0.882 --   226 o    0.828
   229   8 o    1.859 --   230 h    0.853   231 h    0.832
   230   1 h    0.895 --   229 o    0.853
   231   1 h    0.894 --   229 o    0.832
   232   8 o    1.850 --   233 h    0.858   234 h    0.830
   233   1 h    0.897 --   232 o    0.858
   234   1 h    0.894 --   232 o    0.830
   235   8 o    1.835 --   237 h    0.889   236 h    0.807
   236   1 h    0.883 --   235 o    0.807
   237   1 h    0.904 --   235 o    0.889
   238   8 o    1.854 --   239 h    0.829   240 h    0.802
   239   1 h    0.887 --   238 o    0.829
   240   1 h    0.879 --   238 o    0.802
   241   8 o    1.847 --   243 h    0.842   242 h    0.796
   242   1 h    0.885 --   241 o    0.796
   243   1 h    0.883 --   241 o    0.842
   244   8 o    1.857 --   246 h    0.899   245 h    0.811
   245   1 h    0.886 --   244 o    0.811
   246   1 h    0.911 --   244 o    0.899
   247   8 o    1.849 --   248 h    0.818   249 h    0.785
   248   1 h    0.890 --   247 o    0.818
   249   1 h    0.873 --   247 o    0.785
   250   8 o    1.886 --   252 h    0.806   251 h    0.793
   251   1 h    0.877 --   250 o    0.793
   252   1 h    0.887 --   250 o    0.806
   253   8 o    1.846 --   255 h    0.914   254 h    0.784
   254   1 h    0.877 --   253 o    0.784
   255   1 h    0.921 --   253 o    0.914
   256   8 o    1.838 --   257 h    0.846   258 h    0.813
   257   1 h    0.900 --   256 o    0.846
   258   1 h    0.879 --   256 o    0.813
   259   8 o    1.890 --   260 h    0.813   261 h    0.810
   260   1 h    0.875 --   259 o    0.813
   261   1 h    0.888 --   259 o    0.810
   262   8 o    1.844 --   263 h    0.918   264 h    0.805
   263   1 h    0.923 --   262 o    0.918
   264   1 h    0.880 --   262 o    0.805
   265   8 o    1.851 --   266 h    0.849   267 h    0.840
   266   1 h    0.895 --   265 o    0.849
   267   1 h    0.896 --   265 o    0.840
   268   8 o    1.841 --   269 h    0.854   270 h    0.817
   269   1 h    0.898 --   268 o    0.854
   270   1 h    0.887 --   268 o    0.817
   271   8 o    1.864 --   272 h    0.877   273 h    0.832
   272   1 h    0.900 --   271 o    0.877
   273   1 h    0.890 --   271 o    0.832
   274   8 o    1.863 --   275 h    0.914   276 h    0.855
   275   1 h    0.916 --   274 o    0.914
   276   1 h    0.889 --   274 o    0.855
   277   8 o    1.864 --   279 h    0.910   278 h    0.792
   278   1 h    0.882 --   277 o    0.792
   279   1 h    0.919 --   277 o    0.910
   280   8 o    1.866 --   282 h    0.875   281 h    0.818
   281   1 h    0.885 --   280 o    0.818
   282   1 h    0.896 --   280 o    0.875
   283   8 o    1.847 --   284 h    0.905   285 h    0.822
   284   1 h    0.912 --   283 o    0.905
   285   1 h    0.886 --   283 o    0.822
   286   8 o    1.856 --   288 h    0.873   287 h    0.799
   287   1 h    0.886 --   286 o    0.799
   288   1 h    0.899 --   286 o    0.873
   289   8 o    1.841 --   290 h    0.815   291 h    0.775
   290   1 h    0.894 --   289 o    0.815
   291   1 h    0.874 --   289 o    0.775
   292   8 o    1.849 --   293 h    0.879   294 h    0.864
   293   1 h    0.900 --   292 o    0.879
   294   1 h    0.898 --   292 o    0.864
   295   8 o    1.863 --   297 h    0.834   296 h    0.812
   296   1 h    0.878 --   295 o    0.812
   297   1 h    0.885 --   295 o    0.834
   298   8 o    1.866 --   299 h    0.838   300 h    0.829
   299   1 h    0.886 --   298 o    0.838
   300   1 h    0.886 --   298 o    0.829
   301   8 o    1.858 --   303 h    0.892   302 h    0.791
   302   1 h    0.878 --   301 o    0.791
   303   1 h    0.906 --   301 o    0.892
   304   8 o    1.861 --   306 h    0.845   305 h    0.811
   305   1 h    0.878 --   304 o    0.811
   306   1 h    0.898 --   304 o    0.845
   307   8 o    1.853 --   309 h    0.874   308 h    0.816
   308   1 h    0.883 --   307 o    0.816
   309   1 h    0.904 --   307 o    0.874
   310   8 o    1.855 --   311 h    0.856   312 h    0.840
   311   1 h    0.881 --   310 o    0.856
   312   1 h    0.888 --   310 o    0.840
   313   8 o    1.850 --   314 h    0.833   315 h    0.826
   314   1 h    0.884 --   313 o    0.833
   315   1 h    0.894 --   313 o    0.826
   316   8 o    1.843 --   318 h    0.845   317 h    0.822
   317   1 h    0.884 --   316 o    0.822
   318   1 h    0.897 --   316 o    0.845
   319   8 o    1.840 --   321 h    0.860   320 h    0.839
   320   1 h    0.883 --   319 o    0.839
   321   1 h    0.899 --   319 o    0.860
   322   8 o    1.890 --   324 h    0.862   323 h    0.800
   323   1 h    0.869 --   322 o    0.800
   324   1 h    0.894 --   322 o    0.862
   325   8 o    1.809 --   327 h    0.844   326 h    0.823
   326   1 h    0.882 --   325 o    0.823
   327   1 h    0.887 --   325 o    0.844
   328   8 o    1.843 --   329 h    0.899   330 h    0.784
   329   1 h    0.910 --   328 o    0.899
   330   1 h    0.875 --   328 o    0.784
   331   8 o    1.869 --   333 h    0.868   332 h    0.808
   332   1 h    0.883 --   331 o    0.808
   333   1 h    0.895 --   331 o    0.868
   334   8 o    1.854 --   336 h    0.868   335 h    0.817
   335   1 h    0.884 --   334 o    0.817
   336   1 h    0.903 --   334 o    0.868
   337   8 o    1.852 --   338 h    0.894   339 h    0.794
   338   1 h    0.909 --   337 o    0.894
   339   1 h    0.877 --   337 o    0.794
   340   8 o    1.870 --   342 h    0.858   341 h    0.841
   341   1 h    0.889 --   340 o    0.841
   342   1 h    0.898 --   340 o    0.858
   343   8 o    1.825 --   344 h    0.887   345 h    0.844
   344   1 h    0.903 --   343 o    0.887
   345   1 h    0.891 --   343 o    0.844
   346   8 o    1.839 --   348 h    0.829   347 h    0.802
   347   1 h    0.875 --   346 o    0.802
   348   1 h    0.887 --   346 o    0.829
   349   8 o    1.823 --   351 h    0.867   350 h    0.807
   350   1 h    0.883 --   349 o    0.807
   351   1 h    0.905 --   349 o    0.867
   352   8 o    1.876 --   354 h    0.839   353 h    0.820
   353   1 h    0.894 --   352 o    0.820
   354   1 h    0.893 --   352 o    0.839
   355   8 o    1.865 --   357 h    0.855   356 h    0.849
   356   1 h    0.896 --   355 o    0.849
   357   1 h    0.894 --   355 o    0.855
   358   8 o    1.835 --   360 h    0.900   359 h    0.813
   359   1 h    0.884 --   358 o    0.813
   360   1 h    0.911 --   358 o    0.900
   361   8 o    1.845 --   363 h    0.919   362 h    0.825
   362   1 h    0.885 --   361 o    0.825
   363   1 h    0.923 --   361 o    0.919
   364   8 o    1.859 --   366 h    0.820   365 h    0.814
   365   1 h    0.879 --   364 o    0.814
   366   1 h    0.885 --   364 o    0.820
   367   8 o    1.863 --   369 h    0.920   368 h    0.813
   368   1 h    0.879 --   367 o    0.813
   369   1 h    0.923 --   367 o    0.920
   370   8 o    1.845 --   372 h    0.829   371 h    0.813
   371   1 h    0.888 --   370 o    0.813
   372   1 h    0.886 --   370 o    0.829
   373   8 o    1.842 --   375 h    0.872   374 h    0.815
   374   1 h    0.881 --   373 o    0.815
   375   1 h    0.896 --   373 o    0.872
   376   8 o    1.885 --   378 h    0.888   377 h    0.882
   377   1 h    0.898 --   376 o    0.882
   378   1 h    0.901 --   376 o    0.888
   379   8 o    1.813 --   381 h    0.844   380 h    0.843
   380   1 h    0.903 --   379 o    0.843
   381   1 h    0.894 --   379 o    0.844
   382   8 o    1.875 --   384 h    0.912   383 h    0.814
   383   1 h    0.874 --   382 o    0.814
   384   1 h    0.917 --   382 o    0.912
   385   8 o    1.870 --   386 h    0.810   387 h    0.805
   386   1 h    0.875 --   385 o    0.810
   387   1 h    0.871 --   385 o    0.805
   388   8 o    1.879 --   390 h    0.840   389 h    0.808
   389   1 h    0.877 --   388 o    0.808
   390   1 h    0.889 --   388 o    0.840
   391   8 o    1.854 --   392 h    0.875   393 h    0.855
   392   1 h    0.901 --   391 o    0.875
   393   1 h    0.898 --   391 o    0.855
   394   8 o    1.883 --   396 h    0.821   395 h    0.809
   395   1 h    0.874 --   394 o    0.809
   396   1 h    0.893 --   394 o    0.821
   397   8 o    1.866 --   399 h    0.878   398 h    0.807
   398   1 h    0.885 --   397 o    0.807
   399   1 h    0.900 --   397 o    0.878
   400   8 o    1.884 --   402 h    0.849   401 h    0.798
   401   1 h    0.866 --   400 o    0.798
   402   1 h    0.895 --   400 o    0.849
   403   8 o    1.862 --   404 h    0.919   405 h    0.834
   404   1 h    0.922 --   403 o    0.919
   405   1 h    0.884 --   403 o    0.834
   406   8 o    1.866 --   408 h    0.868   407 h    0.851
   407   1 h    0.894 --   406 o    0.851
   408   1 h    0.903 --   406 o    0.868
   409   8 o    1.853 --   411 h    0.841   410 h    0.839
   410   1 h    0.896 --   409 o    0.839
   411   1 h    0.895 --   409 o    0.841
   412   8 o    1.864 --   413 h    0.866   414 h    0.857
   413   1 h    0.891 --   412 o    0.866
   414   1 h    0.891 --   412 o    0.857
   415   8 o    1.889 --   417 h    0.837   416 h    0.802
   416   1 h    0.875 --   415 o    0.802
   417   1 h    0.891 --   415 o    0.837
   418   8 o    1.830 --   419 h    0.813   420 h    0.808
   419   1 h    0.889 --   418 o    0.813
   420   1 h    0.888 --   418 o    0.808
   421   8 o    1.860 --   422 h    0.853   423 h    0.835
   422   1 h    0.890 --   421 o    0.853
   423   1 h    0.889 --   421 o    0.835
   424   8 o    1.830 --   426 h    0.872   425 h    0.835
   425   1 h    0.884 --   424 o    0.835
   426   1 h    0.909 --   424 o    0.872
   427   8 o    1.856 --   429 h    0.799   428 h    0.785
   428   1 h    0.879 --   427 o    0.785
   429   1 h    0.881 --   427 o    0.799
   430   8 o    1.834 --   432 h    0.878   431 h    0.836
   431   1 h    0.887 --   430 o    0.836
   432   1 h    0.902 --   430 o    0.878
   433   8 o    1.860 --   435 h    0.877   434 h    0.822
   434   1 h    0.892 --   433 o    0.822
   435   1 h    0.901 --   433 o    0.877
   436   8 o    1.868 --   438 h    0.813   437 h    0.813
   437   1 h    0.880 --   436 o    0.813
   438   1 h    0.890 --   436 o    0.813
   439   8 o    1.852 --   441 h    0.839   440 h    0.828
   440   1 h    0.882 --   439 o    0.828
   441   1 h    0.897 --   439 o    0.839
   442   8 o    1.830 --   443 h    0.883   444 h    0.848
   443   1 h    0.903 --   442 o    0.883
   444   1 h    0.890 --   442 o    0.848
   445   8 o    1.855 --   447 h    0.846   446 h    0.812
   446   1 h    0.887 --   445 o    0.812
   447   1 h    0.893 --   445 o    0.846
   448   8 o    1.869 --   450 h    0.830   449 h    0.823
   449   1 h    0.883 --   448 o    0.823
   450   1 h    0.892 --   448 o    0.830
   451   8 o    1.863 --   452 h    0.860   453 h    0.790
   452   1 h    0.897 --   451 o    0.860
   453   1 h    0.877 --   451 o    0.790
   454   8 o    1.843 --   456 h    0.852   455 h    0.798
   455   1 h    0.874 --   454 o    0.798
   456   1 h    0.896 --   454 o    0.852
   457   8 o    1.847 --   458 h    0.852   459 h    0.849
   458   1 h    0.893 --   457 o    0.852
   459   1 h    0.886 --   457 o    0.849
   460   8 o    1.911 --   462 h    0.839   461 h    0.794
   461   1 h    0.873 --   460 o    0.794
   462   1 h    0.875 --   460 o    0.839
   463   8 o    1.856 --   465 h    0.832   464 h    0.799
   464   1 h    0.881 --   463 o    0.799
   465   1 h    0.895 --   463 o    0.832
   466   8 o    1.850 --   468 h    0.909   467 h    0.804
   467   1 h    0.877 --   466 o    0.804
   468   1 h    0.916 --   466 o    0.909
   469   8 o    1.843 --   471 h    0.843   470 h    0.818
   470   1 h    0.871 --   469 o    0.818
   471   1 h    0.892 --   469 o    0.843
   472   8 o    1.824 --   473 h    0.861   474 h    0.836
   473   1 h    0.901 --   472 o    0.861
   474   1 h    0.886 --   472 o    0.836
   475   8 o    1.829 --   476 h    0.852   477 h    0.806
   476   1 h    0.889 --   475 o    0.852
   477   1 h    0.877 --   475 o    0.806
   478   8 o    1.871 --   479 h    0.885   480 h    0.776
   479   1 h    0.901 --   478 o    0.885
   480   1 h    0.872 --   478 o    0.776
   481   8 o    1.856 --   483 h    0.884   482 h    0.864
   482   1 h    0.894 --   481 o    0.864
   483   1 h    0.902 --   481 o    0.884
   484   8 o    1.855 --   485 h    0.824   486 h    0.793
   485   1 h    0.888 --   484 o    0.824
   486   1 h    0.877 --   484 o    0.793
   487   8 o    1.872 --   489 h    0.845   488 h    0.824
   488   1 h    0.890 --   487 o    0.824
   489   1 h    0.896 --   487 o    0.845
   490   8 o    1.869 --   491 h    0.864   492 h    0.789
   491   1 h    0.895 --   490 o    0.864
   492   1 h    0.877 --   490 o    0.789
   493   8 o    1.840 --   495 h    0.854   494 h    0.809
   494   1 h    0.880 --   493 o    0.809
   495   1 h    0.900 --   493 o    0.854
   496   8 o    1.848 --   498 h    0.913   497 h    0.783
   497   1 h    0.873 --   496 o    0.783
   498   1 h    0.917 --   496 o    0.913
   499   8 o    1.832 --   501 h    0.877   500 h    0.830
   500   1 h    0.890 --   499 o    0.830
   501   1 h    0.900 --   499 o    0.877
   502   8 o    1.836 --   503 h    0.868   504 h    0.863
   503   1 h    0.901 --   502 o    0.868
   504   1 h    0.895 --   502 o    0.863
   505   8 o    1.861 --   506 h    0.832   507 h    0.800
   506   1 h    0.885 --   505 o    0.832
   507   1 h    0.883 --   505 o    0.800
   508   8 o    1.844 --   509 h    0.858   510 h    0.822
   509   1 h    0.897 --   508 o    0.858
   510   1 h    0.882 --   508 o    0.822
   511   8 o    1.854 --   513 h    0.916   512 h    0.827
   512   1 h    0.875 --   511 o    0.827
   513   1 h    0.921 --   511 o    0.916
   514   8 o    1.859 --   515 h    0.871   516 h    0.848
   515   1 h    0.901 --   514 o    0.871
   516   1 h    0.890 --   514 o    0.848
   517   8 o    1.845 --   518 h    0.831   519 h    0.829
   518   1 h    0.891 --   517 o    0.831
   519   1 h    0.882 --   517 o    0.829
   520   8 o    1.849 --   522 h    0.855   521 h    0.833
   521   1 h    0.885 --   520 o    0.833
   522   1 h    0.897 --   520 o    0.855
   523   8 o    1.844 --   524 h    0.902   525 h    0.820
   524   1 h    0.913 --   523 o    0.902
   525   1 h    0.881 --   523 o    0.820
   526   8 o    1.858 --   527 h    0.892   528 h    0.829
   527   1 h    0.897 --   526 o    0.892
   528   1 h    0.872 --   526 o    0.829
   529   8 o    1.825 --   530 h    0.901   531 h    0.896
   530   1 h    0.910 --   529 o    0.901
   531   1 h    0.907 --   529 o    0.896
 ---------------------------------------------------------------------------

Topologies differ in total number of bonds
Writing topology from bond orders to xtbtopo.mol

molecular dipole:
                 x           y           z       tot (Debye)
 q only:       -0.741       3.782       2.276
   full:        0.843       4.789       2.300      13.673
molecular quadrupole (traceless):
                xx          xy          yy          xz          yz          zz
 q only:      116.659     -29.354     -74.112      -8.099     -37.439     -42.548
  q+dip:      153.094     -38.080    -102.756      -7.122     -62.040     -50.338
   full:      153.616     -38.250    -103.275      -8.186     -61.538     -50.341


           -------------------------------------------------
          | TOTAL ENERGY             -901.173669283957 Eh   |
          | GRADIENT NORM               0.096362575918 Eh/α |
          | HOMO-LUMO GAP               6.719864154634 eV   |
           -------------------------------------------------

------------------------------------------------------------------------
 * finished run on 2022/11/17 at 06:55:19.710     
------------------------------------------------------------------------
 total:
 * wall-time:     0 d,  0 h,  0 min, 19.973 sec
 *  cpu-time:     0 d,  0 h,  0 min, 26.048 sec
 * ratio c/w:     1.304 speedup
 SCF:
 * wall-time:     0 d,  0 h,  0 min, 19.368 sec
 *  cpu-time:     0 d,  0 h,  0 min, 25.012 sec
 * ratio c/w:     1.291 speedup

