531
 energy: -901.157633886930 gnorm: 0.005769662881 xtb: 6.5.1 (579679a)
o           -1.50849900374615       -3.70712358536403       -0.79113151730137
h           -2.02464585505927       -2.90190044097022       -0.90983187528845
h           -2.19022133899764       -4.37208749567055       -0.54453799957953
o            3.06537332120362       -2.55854649032548        2.02611959092275
h            2.28472831812980       -3.11340459124770        2.08619482544902
h            3.05279959897031       -1.91391632923234        2.75366810992264
o            1.62150057156217        0.09405936427359        1.82302306226514
h            2.55278419166001       -0.08676610935033        1.62837262572430
h            1.57120691172821        0.68519679802970        2.59786427347775
o            1.40198233772798       -4.04008375097288       -2.90156953450084
h            1.28212482714798       -5.00292565134321       -2.93375718971475
h            1.63576746733809       -3.77198089814665       -3.81097339982930
o           -5.27674819843899       -1.09100974807929        5.06841791646700
h           -4.91081829228876       -1.90933845645739        5.43896697588885
h           -5.50110217092384       -0.47621623071796        5.79490246246583
o            4.46963369862048       -5.45087654178350       -3.67442249199770
h            5.42723653367705       -5.36464876318372       -3.77370783798649
h            4.14556461798690       -4.54728001311670       -3.46609196732600
o            0.46026914589737       -1.76110918690953        3.38714676515023
h            1.14565123830991       -2.06913871843115        4.00507582632069
h            0.87333918257413       -1.06580306131797        2.83350452411589
o            6.23106112350067       -5.00545240760900       -0.02982847943234
h            5.75050532738476       -4.71528358522997        0.77281170740090
h            7.15087135916332       -5.15413278531475        0.26068706481419
o           -5.85009699844493       -1.72425337802876       -0.30679466663639
h           -6.81746637939539       -1.65053000316883       -0.39550987220602
h           -5.57988698781465       -0.96126664631673        0.25050836595863
o           -1.49662499814732        1.62167082684615        3.97460402724792
h           -1.71311609816223        2.22009635912593        3.23675407850359
h           -1.86108188293443        0.74135781701880        3.79017369235904
o           -3.20657286670368       -1.59597294373055       -1.38135162034250
h           -3.75586343084217       -0.79473928326659       -1.47864231621565
h           -3.29573445793153       -2.06647837167799       -2.23778794958469
o            2.36062032328838        5.50471032998888        1.36883864430331
h            2.20934000112401        5.37291212791713        2.32238191203632
h            3.24839353962361        5.88193440509140        1.24090489677228
o            1.16837088540196        1.36482943357521        4.12359910092482
h            0.28067638035990        1.71801311370773        3.92701475466321
h            1.01125863237819        0.77039539822492        4.88266289870087
o           -3.90523057208423        2.10629403768415        5.08244224236572
h           -4.10768503720089        3.05975773912443        5.11920311655534
h           -3.02071534154694        2.02640295519603        4.67070266876572
o           -0.43037757557083        3.76109952935617       -3.16130012440395
h           -0.91016089505799        3.01195686585971       -2.77366291326780
h           -0.56835618376961        4.54410488261137       -2.61147757341462
o           -2.31443051577406        6.17418677097692       -4.45671456541915
h           -1.67371754041728        6.02239596855965       -5.16290709530072
h           -1.78134819173182        6.24573044733962       -3.65231370914887
o           -3.74685713757762        3.94392810689377       -2.25797174891205
h           -3.97208690058124        4.87036986864146       -2.47442462453028
h           -4.61147799876044        3.54606177560674       -2.01123812290333
o           -0.30735309118492       -1.83704185186479       -3.35734902671482
h           -0.11926027463544       -2.77618249773402       -3.22064571999788
h           -0.60725045646098       -1.74332701275943       -4.28281914035272
o            3.65559061444500        2.19180534805059        3.72266185382232
h            4.11317351129185        2.53232285045864        4.51782002774967
h            2.71492483371710        2.09207119900354        3.98063231698873
o            3.99806875867079       -3.06873771729158       -0.53587346068330
h            3.63843800223644       -2.53109662037228        0.17907011118660
h            3.65431871536307       -3.95346671970923       -0.33704817522959
o           -2.93198129937949        7.09269196756070       -0.81947260067172
h           -2.62751688612671        7.40947183657120        0.03971606971517
h           -2.12357955798067        6.82477108591776       -1.29074572934843
o            1.10711450788522        1.53432688994939       -3.99215453331962
h            0.24697815918629        1.55285048183128       -4.45873146103188
h            1.49107289946259        0.64250041269068       -4.09732168536230
o            5.12074575841228        2.94439349052793        5.84894674225188
h            5.91841501950680        3.21150625994598        5.36197153803183
h            5.36354495598603        2.18855907045191        6.39260086251301
o            8.31469450458697       -0.48199774358147       -2.07115766344402
h            9.00787243307600       -0.35613808885834       -2.76218330803275
h            7.79494035010848       -1.25492217037181       -2.31983499317263
o           -6.90316339504496        2.60095603199073        0.90819584104004
h           -6.53903566032774        2.72932464028137        0.02160196769582
h           -7.39370926813342        3.41992336300958        1.09200186988709
o            1.16555200656359       -2.62386357616552       -0.64652916421706
h            0.87855867958986       -3.14174191361856        0.13061138568245
h            1.30655459718160       -3.23098919053805       -1.39872253963039
o           -4.01332753725532       -3.43595050192268        5.33849587981024
h           -3.72969861646943       -4.06435229192149        6.00124185972231
h           -3.20879620519716       -3.22192493567919        4.80142050393806
o           -3.14393340851511        3.47989076314581       -4.84545994795258
h           -3.31797475836789        3.54796381073033       -3.88455076360254
h           -2.84204299012362        4.36076998022037       -5.09814501610917
o           -4.54428841729424        6.44480906546931       -2.89399097170414
h           -3.99365713888029        6.52329451098792       -3.68703550232786
h           -4.06686409198826        6.92659469977114       -2.19823895335382
o            7.36192239768251        0.53274367407352        4.91899884032987
h            6.81168986593147        0.40298055341271        5.71394879987638
h            7.25376939021639        1.45430350897382        4.63720278967414
o            5.54297708053906       -2.83209196134702       -5.36763467560641
h            4.93458394888358       -2.74065619263016       -4.60081797134983
h            6.18644541053965       -3.50153807283743       -5.05307097579071
o           -7.40716869308480       -2.99243330377083       -5.51089076801577
h           -7.80846649655319       -3.23505682356108       -4.66556209164270
h           -7.60694325944998       -2.05103174051133       -5.62851846340239
o           -1.97409247964929        1.80452263928188       -2.12028657708628
h           -2.71796052263585        2.41900032187212       -2.12329941760630
h           -2.20481272514389        1.08689459876126       -2.74730315661311
o            0.30065802890571       -5.82045318169542       -0.40105018209198
h           -0.18268135325130       -4.98399347579995       -0.42745200794228
h            1.19084194441721       -5.62521616100910       -0.02695790239881
o            0.39278879815830        0.10637763123076        6.35601143160810
h            0.01432027787118        0.98101953418375        6.58061254756995
h           -0.37851860308206       -0.47681804666217        6.21147259671802
o            1.10821952398242       -6.77074876952971       -2.74872935838113
h            1.96853239586513       -7.17946495981053       -2.64623108839034
h            0.79047370756227       -6.54644277444001       -1.84473136435111
o            5.92189205188435        1.33117869189709        2.33577583019368
h            5.41788316374491        1.94963044291881        2.86883441173778
h            5.28047134729338        0.64033842859110        2.04693208569148
o           -6.25942517936869       -1.78255396731978        2.64235690404975
h           -5.97312239573137       -1.54292246405210        3.54211507897286
h           -6.84510808193072       -1.06187069958301        2.34802075625758
o            4.27458027071698       -0.29545203568858        1.15893448617740
h            4.20098356634484        0.26065100871743        0.35688258328939
h            4.81263680579781       -1.06445490614309        0.94057896353579
o            1.25134874970359        6.33155781767647       -4.17327763801541
h            2.12239648579054        6.34052825374450       -4.61521903291343
h            0.67545805043277        5.82627002895587       -4.79104241420142
o            2.78137010925258       -5.37919574713385        0.36370868525620
h            3.30242078771095       -5.92739769547336       -0.27549163284048
h            2.94363463769825       -5.79614659955076        1.22442554000133
o            3.01429106954274        0.52566243973079        6.32427772415193
h            2.15007898382210        0.21572773288557        6.63397897861892
h            3.15183403658205        0.06944685465697        5.46207940664427
o            4.92625380945655       -2.63864728769388        5.74962899286653
h            5.43254036388473       -2.32736547807391        4.97485904194729
h            5.07888240169603       -3.58632599957109        5.78952978956433
o           -1.86625533865409       -1.29211024912165        6.11770717821718
h           -2.19534098072294       -1.16758855557451        5.20345045473932
h           -2.32547863504912       -0.60898392580044        6.64962754466705
o            0.82970205352266        1.45485407012310       -1.36222853231658
h            0.93942270144335        1.59975631797925       -2.33165089397650
h            0.76334476987915        2.33756103512790       -0.96109376903269
o           -0.59628872037811        6.32871671084037       -2.14327878995296
h           -0.15358754525040        6.57810294020293       -1.29375259516934
h            0.06135309080795        6.56561079446210       -2.81739041731053
o           -3.59628865724709       -5.33675734187123       -0.81654229834385
h           -4.04504431651244       -5.28713482897517       -1.68539510083384
h           -4.25399142162711       -5.02834180388523       -0.16617738948234
o           -5.08471802005486        0.32660374799865        1.17715612918713
h           -4.88809013079730        1.20769779485342        0.83163257204356
h           -5.37193062420829        0.48837210129027        2.09355667646582
o           10.14888495581607        0.17336637951534       -3.86635829769063
h           10.53885735253574        0.88418536366776       -3.32718518611360
h            9.60470460560392        0.63499976978676       -4.52652513134203
o           -1.16756613587652        1.62644686150292       -5.36474092487515
h           -1.76370804456833        2.39031394203394       -5.32161011157681
h           -1.66309030460339        0.89290156935937       -4.94851049289180
o           -6.79591826909492        6.22639818233305       -1.29521615463384
h           -7.01789753399991        7.15466314941146       -1.21252023290583
h           -6.16402908311945        6.16626950931181       -2.02990759747128
o           -0.49435461133535        2.61731366637344        6.77900054666442
h            0.40322324319036        2.97483513050344        6.78088766228903
h           -0.96368812299178        3.15308819716549        6.10914851091122
o           -9.54801520666337        2.38955479670419       -3.14232732786435
h           -9.47364588366307        2.51197530204619       -2.18136991651897
h           -8.78993572809568        2.84101609841867       -3.54315980287611
o           -2.98078624745127       -0.62082350220175        3.72875904035686
h           -3.86031417455120       -0.58917731563807        4.15146529083929
h           -3.04950744517567       -1.30183698241941        3.03797615784567
o            5.98027260946761       -1.34394741141239        3.61446403606073
h            6.23672474787489       -1.47865409441500        2.67904843904556
h            6.57633978256670       -0.66426789117134        3.99150405047981
o            9.23897521393516        1.75744987754882       -0.13782362261320
h           10.07423390324234        1.60257285581807       -0.59600916780426
h            9.27822235859370        1.32125026371824        0.73607643370882
o           -9.44277660332716       -2.05067944804401        3.80772408943029
h           -8.88577005140450       -2.84134220378864        3.73622786416371
h           -9.93907543708190       -2.02421326379944        2.97170749189380
o           -1.08568896357301       -1.56579736993016       -5.92171125240100
h           -1.99026771094855       -1.24308497077047       -6.09616011801597
h           -0.49171132358062       -1.01206034940388       -6.46282586529782
o           -2.26734376144246       -4.58217168607975        1.57939450946865
h           -2.79195468697069       -3.78724488973051        1.76428743291447
h           -2.51113019462496       -5.23479531563121        2.25888466032737
o            2.30217496381113        4.57167415035352       -2.46137202754089
h            2.49081407060952        3.72835245549465       -2.91115761611115
h            1.87971714140559        5.17183060687274       -3.11863474266236
o           -5.09187037479130        3.51768511033956        2.72158762399922
h           -5.60654294894135        3.04171115429889        2.05208267681376
h           -5.70534736377448        4.14289734363411        3.14191908010191
o           -8.02458034900312        0.13454887521707        1.70488052262605
h           -7.57190686450080        0.95234680854427        1.43181002596101
h           -8.91097159846602        0.38990798852558        2.02398584572049
o           -4.71237793759962        5.28413365635385        0.34032880162525
h           -5.55128558886809        5.50956168713930       -0.08517641839784
h           -4.03168502755195        5.84589640023465       -0.06995819020947
o           -9.36322372450764        2.04448798831842       -0.42519217105197
h          -10.00669625970808        1.31919897080838       -0.42509284886102
h           -9.50947944053820        2.54931692738207        0.40041020775113
o            6.80321792131716        0.69449430086680       -0.15260179204218
h            7.67677142657156        1.05637410619275       -0.37978859276455
h            6.51917391017040        1.15713945684389        0.65024479257215
o            4.24793811988885        1.69630068372201       -0.67391498027620
h            3.69605251569133        2.17304403899152       -0.01909670402808
h            5.09076183019391        2.17943967399785       -0.73082089899635
o            3.94835316128343       -2.85175667382246       -3.23005771752454
h            3.20085611723387       -2.26387456376425       -3.46076046102107
h            3.98084436276869       -2.87880240791330       -2.25248428462138
o           -1.69561844058572        4.37905951772356        5.05963258518238
h           -2.56445219307764        4.63044648610101        5.40208023631065
h           -1.86050039468824        4.08841645178864        4.14119601569187
o           -5.93316333993847        0.81500946788591        6.85996347075255
h           -5.12103140308585        0.90209471340637        7.36852609987005
h           -6.12223803719693        1.70265732113232        6.50436735504400
o           -4.14743751851301        2.64356449953794        0.11313505230391
h           -4.38597341628208        3.57847414759969        0.25576089827148
h           -3.23904130359123        2.53064816071405        0.43714493234300
o            6.72521894105402       -3.02561906409184       -1.73212381439847
h            6.06111698856762       -2.30735588603019       -1.73349428497157
h            6.39701688340370       -3.68424864148629       -1.07487488667649
o           -5.17884481152192       -4.81260824280009        3.25822970101114
h           -4.87679094964570       -4.20926311877689        3.95962013013812
h           -4.53146674288369       -5.53702643639095        3.26896491391511
o            4.65412587110395        0.12889617244135       -4.29776874626542
h            4.83869006988067       -0.40433540998671       -3.49669500068705
h            4.04177225061599       -0.39830980344582       -4.85013295591916
o            3.30227991622406       -1.27772783655620       -6.15191645294316
h            4.03136931968125       -1.83809579936705       -6.43173201948257
h            2.58007369282853       -1.88316674068512       -5.88499654340742
o           -5.35651529313811       -0.00300791992075       -4.13125155301436
h           -5.18743176742553        0.46248500639189       -3.29029743363571
h           -5.39576606799677       -0.95037889352656       -3.85076307113741
o            5.24584139850642       -0.76473932434959       -1.85207418637025
h            4.34005489104264       -0.70937059598689       -1.50246371400579
h            5.78837994667086       -0.16781549583048       -1.30949066830942
o            4.38970863143576       -6.64260698231828       -1.25451434580985
h            5.17183061797276       -6.22331852261878       -0.85311265905095
h            4.36335297728085       -6.30711917584403       -2.17187439999982
o           -9.22544954738963       -0.26821362021589       -3.05785213740146
h           -8.83542683187521       -0.48471753212915       -3.91787620131095
h           -9.50216506721715        0.66960320587628       -3.15115716214489
o           -2.91687353538129        0.92257577700587        7.25677693863780
h           -3.33310299306473        1.34606195201641        6.47256951009381
h           -2.14807605580799        1.47098354482628        7.44752871604015
o            3.56510783963955        2.30691231467132       -3.14694982513535
h            3.71205688440644        1.50928195237332       -3.68250407714807
h            3.71615993342554        2.02913505214264       -2.21844580797920
o           -1.73934342442886        6.73042371497118        1.70746728338641
h           -1.20977272226058        6.62097037262585        2.53822305151092
h           -1.78511452118256        5.85773370313667        1.28324978294411
o            7.35278704143005       -0.99682946031683       -4.67675626660403
h            6.62534276112032       -1.55736629661196       -5.02155949851462
h            7.58900796241438       -0.36904074986161       -5.36034696548293
o            0.24117263842481       -3.77002774242799        1.62898639526736
h            0.23021423344157       -3.04183350688744        2.28354642473906
h           -0.70839451577719       -4.04328396657620        1.52847746859252
o           -8.53165757325775       -1.59177978501947       -0.22893943155964
h           -8.34844682595566       -0.99459770972395        0.53611544346062
h           -8.73587088241148       -2.48665678629533        0.12881538284914
o           -7.30735632844499        3.70021155880535       -4.22991462676080
h           -6.65636372834211        3.17235707947791       -4.76387450662152
h           -7.55831792116163        4.44611009390293       -4.77287205678685
o            1.99019880185516        3.26262401400328       -5.86923871806912
h            2.37292635374698        2.61879584623565       -6.48893987117521
h            1.77062981852625        2.73932177115387       -5.07168523346419
o            8.60703039046512        1.03064417408009        2.32796693281816
h            7.63975062050631        1.08954870201498        2.43207191415958
h            8.97516802441021        1.84045999704775        2.74770820517546
o           10.81545338067394        2.34078197092897       -2.35343959945480
h           11.64362973433806        2.81715470583245       -2.31263888594004
h           10.10077462707981        3.01743564115107       -2.27108199909551
o            0.45759039774596        7.11507288758449        0.13355144060925
h            1.15940981943352        6.60662237845688        0.56706949958912
h           -0.28007126941599        7.16524378092970        0.76852676529817
o            9.20559824223157        4.25409598221736        0.87022953686281
h            8.27788821000183        4.35848148453274        1.13976684215582
h            9.25334371140220        3.35010010988739        0.48892077593920
o           -1.64006997663934       -7.21711589141698       -3.28302980311028
h           -0.68998027218568       -7.36670631183876       -3.37962586934801
h           -1.84662032367622       -7.45855204141762       -2.35544902496812
o            7.35796826524944       -3.80192873526848        3.78958212601383
h            7.68917461122071       -4.69311277698683        3.90141173943860
h            8.00420717289341       -3.33340186053692        3.24390584753982
o            3.05026673140520       -6.87269643457123        2.66526743812447
h            3.38534488051751       -6.33408025404272        3.42766092809190
h            3.54134077684466       -7.69248708661355        2.65171145398198
o           -8.19580884431695       -3.02150664827362       -2.82420079007901
h           -8.00604710682230       -3.76920733560406       -2.21773733734499
h           -8.65852194698765       -2.33948847664895       -2.32746509776458
o           -8.13624924494294        0.07434800460211        4.83112480378219
h           -7.94658103643945       -0.11782800986821        5.75020589071263
h           -8.60687474147918       -0.69621473800721        4.45255837670446
o           -2.99477923545334       -6.38251085514920        3.50085426020121
h           -2.57706412080753       -7.13649443459683        3.01572913870927
h           -2.38943416151530       -6.17380956281182        4.22151384054042
o           -1.30425594419511       -4.58789530594830       -3.25062154031702
h           -1.50014137172147       -5.54936458554613       -3.25368672053257
h           -1.26204193181169       -4.31486723977939       -2.30721206064383
o            8.82988361928926       -4.96095156163752        0.75008248490966
h            9.25474850867171       -4.76854967918801       -0.09503347918317
h            9.00467050747304       -4.18966996139466        1.30792408845458
o           -4.65075815701613        0.67301068926030       -1.65654622431055
h           -4.41631071236751        1.45106189447466       -1.12095617010082
h           -5.54911537696936        0.43133522568183       -1.37110258369287
o           -1.89845214056697       -7.39986268366253       -0.57489668756271
h           -1.07374701878112       -6.90168906658133       -0.43957521641759
h           -2.60996448715532       -6.73000809020960       -0.54130646607929
o            9.75292545625246       -0.71230360361471        3.93070779862026
h            9.29970435690081       -0.06346406081203        3.33725946627884
h            9.25065736345111       -0.66611092840018        4.74851020604710
o            0.45081988117411       -6.19710835655043        2.84187132913964
h            0.44794407754088       -5.37771172287157        2.30860835831396
h            1.34695622933310       -6.56371922453754        2.78363567574246
o           -0.84022860684583       -5.35598117068785        5.01423577559378
h           -0.26371208133353       -5.73734565660601        4.31617310375822
h           -0.28396855805430       -4.87606035981365        5.63901962632831
o           -3.68660970816725       -2.21103684626640        1.61631434734305
h           -3.69229007694035       -1.99647764017274        0.67670077851776
h           -4.59821003609150       -2.07915622380209        1.93060834168379
o           -1.84553746987622       -3.14030223605176        3.89345171527689
h           -1.11590689156957       -2.50996831893229        3.82275539443578
h           -1.46481861979867       -3.97914776262636        4.21980290809901
o            6.69223665421417       -1.71865637314790        1.06197615147279
h            6.88062697743548       -0.90649507299798        0.55320445077510
h            7.54964663726578       -2.10183713539748        1.30186289751703
o            6.49184714030560        4.06921751227020        1.41818972702475
h            6.45759431538316        3.63757578631648        0.54826706323336
h            5.94074717143515        4.86022820548229        1.32617630566142
o           -8.05651856733998        2.59947424012866        3.75172427852581
h           -7.21242530115233        2.24806261933129        3.39131602466374
h           -8.45043870879302        1.82000422734527        4.17266661587206
o            0.34051701980796        2.89053048292494        2.02028610086386
h           -0.38866752654040        2.50509253618475        1.51376240055768
h            1.15449794928892        2.58240937131151        1.59688167284617
o          -10.82368004881090       -0.34497410879417       -0.55872490206329
h          -11.12954489633376       -0.32545360720540       -1.46742126625676
h           -9.94313931420460       -0.80087631539728       -0.59276734680481
o           -9.06620008846476       -4.03430644410880        0.63333382664135
h           -8.56666382801029       -4.13514952515277        1.47743526392787
h           -8.66859282585366       -4.64511440094003        0.00187513802600
o           -9.86790616448479        3.30854637984263        1.90181072925573
h           -9.17237375411395        3.17338612088272        2.58261481949256
h          -10.52235374486705        2.62752129972607        2.11013960742746
o            7.08468506200392       -4.44849906208153       -3.93974723678193
h            8.02302283354749       -4.39447934749326       -4.13288230816340
h            6.94279525196764       -3.92569867998519       -3.11136338883707
o            2.29083423266295       -2.98422879683197        4.98017181355434
h            3.11771581154722       -2.61519692646977        5.34166148641644
h            1.64951560986283       -3.06601089104472        5.70255038573405
o           -3.24055026935132       -5.58436611719891       -5.24315290705582
h           -2.90689443540679       -6.38224776327387       -4.81744522505160
h           -2.45798681525502       -5.17182671477329       -5.65154709366581
o           -2.47035803210724        3.64299249861391        2.55395138315208
h           -3.45037808228408        3.62288989447881        2.62114048191818
h           -2.24410397239852        3.92175093885128        1.65532016092400
o            5.42342205213071        3.87765661354224       -4.25281648143600
h            4.74297182196084        3.34065152026407       -3.78898958846862
h            5.61155912517583        3.36749652827346       -5.05448903065913
o            1.74846480888263       -3.38707130255745       -5.49605441219218
h            2.43693403160840       -3.99377759536921       -5.85187723827977
h            0.89989364521039       -3.70824844175952       -5.84882514496326
o           -1.52351521005260       -8.03876897098684        2.10262746872438
h           -1.72308591153706       -7.97892366883877        1.15230469889247
h           -0.74258857330496       -7.48141032919659        2.25762022994464
o            9.44692519394188       -2.62059520136902       -4.16115973293982
h            8.65424480448446       -2.07301876717127       -4.35365044768086
h           10.18385511047183       -2.01076913114656       -4.25154130215441
o           11.74816852083956        0.54598683654502        0.44354620324908
h           11.18020804323301       -0.22452679566899        0.24101461893928
h           12.64083031332064        0.30467997833265        0.20024250022209
o           -5.57824140286692       -4.24955289513921        0.63162915019907
h           -5.60648793044653       -3.29211690886718        0.43692969176305
h           -5.43725407814731       -4.37325063166278        1.58917298536114
o           -6.67609694301124        3.38751028121695        5.94086834622393
h           -7.18126163854337        3.26887777872295        5.10631846935076
h           -7.25279260830713        3.86094657349274        6.53900615583009
o           -7.30152767008572        0.64177345135798       -1.45428662037574
h           -7.89742119440061        0.16792387042050       -2.07285798388630
h           -7.91259838219218        1.10299017696792       -0.85269882848905
o           -7.24338645847969       -5.02728505278306       -1.31402027148921
h           -6.64323829975971       -4.80060297981440       -0.57319789542020
h           -6.65570976810263       -5.35672904311846       -2.00597284669194
o          -11.99451613668390       -0.86615988094029        3.83642948156742
h          -11.29186905107370       -1.24458984123077        4.37777444144274
h          -12.20491656696364       -1.54102665902812        3.18066996480681
o            3.49436604020295        5.47805165696233       -5.31397266828545
h            4.29796825824712        5.05924682181778       -4.95809016670280
h            2.96973714907666        4.72890534736609       -5.65350555358430
o            4.88355440951826        6.20266297813514        0.63012706033853
h            4.83563035396434        5.94200960181801       -0.31620074266371