612
 energy: -1033.460022541520 gnorm: 0.000599848238 xtb: 6.5.1 (579679a)
H           -0.60369020180000        1.51925376140000       -0.36026671360000
C            0.35921594110000        1.26529636800000       -0.79861490060000
H            0.32073181580000        1.35941336840000       -1.88056935440000
C            0.67633115750000       -0.17286195450000       -0.42408511710000
H            1.68375903230000       -0.43181098160000       -0.73423941720000
H           -0.03812790840000       -0.82337095740000       -0.91646749750000
O            1.32987484220000        2.18664887260000       -0.35733391520000
H            1.26777491190000        2.22084042140000        0.62645426910000
N            0.55442325750000       -0.34493676320000        1.02735290090000
H            1.36960446420000        0.08547006010000        1.50596078740000
H            0.45911967750000       -1.34261769600000        1.30124881720000
H           -0.31423997990000        0.12934230880000        1.36971788420000
O            5.04537051580000        6.41373209820000        2.38243703030000
H            5.41894900870000        6.74118049020000        1.54102925450000
H            5.72800208140000        5.87833345570000        2.82048754940000
O            2.77753761000000        4.41266657730000       -2.67326639480000
H            2.05204839070000        4.64100865150000       -2.05773576530000
H            2.97446610290000        5.20973283890000       -3.19647962920000
O            8.44387214270000        3.89155804710000       -1.62988582180000
H            8.05186691910000        4.19479386660000       -2.47091241680000
H            8.16810113290000        4.48963523180000       -0.92221630380000
O           -3.76005442970000        1.54593921490000        4.03789386460000
H           -4.11098482960000        0.85893996060000        3.43796330210000
H           -4.49783478400000        1.87098504200000        4.57076541710000
O           -3.96025764360000        4.83466691760000        0.17565744500000
H           -4.39241960970000        4.59776002840000        1.01044750550000
H           -3.06500658880000        4.45436855700000        0.23511209660000
O           -0.76983114370000       -3.01294907090000       -4.12300752990000
H           -0.12002771160000       -2.98749631430000       -4.84655779310000
H           -1.60586595500000       -3.33836803460000       -4.46570017100000
O            2.94068377110000        0.68343624380000        1.62723308550000
H            3.38913451970000       -0.17772074760000        1.56568720970000
H            3.36481215580000        1.19292288440000        2.33590032130000
O            5.46044037680000        6.90400287020000       -0.25100470110000
H            4.54122214860000        7.13514367280000       -0.46984073120000
H            5.51941094560000        5.95115829780000       -0.44967139160000
O            2.13409800110000       -2.72689425910000        4.06063936460000
H            1.93734627030000       -3.47433754740000        3.45845881550000
H            3.07112578730000       -2.52258125320000        3.96288360610000
O           -0.43745780360000       -2.78801838400000       -1.39211993680000
H            0.33735574580000       -3.04623376300000       -0.85672282130000
H           -0.19150222330000       -2.88010405010000       -2.32190626830000
O            5.18532712660000        4.50662832920000       -1.54233465920000
H            5.58101242300000        5.09621069610000       -2.20470917790000
H            4.25577578830000        4.38571990680000       -1.82585540200000
O            7.19717737480000        4.34814607530000       -3.96642300550000
H            6.90607667110000        5.26855873620000       -3.92490080880000
H            6.38726498660000        3.79487255670000       -3.92763300880000
O           -1.59145578570000        0.91430839550000        1.97789482260000
H           -2.40587367390000        1.25186573350000        1.54845932090000
H           -1.84705204110000        0.36493656830000        2.73388197300000
O           -1.11247414660000        1.37845612390000        4.88458700950000
H           -0.83516819720000        0.79688956200000        5.60371526600000
H           -2.06983174380000        1.30167325770000        4.80885151460000
O           -2.10181235780000        3.47641576220000        3.10847699640000
H           -1.34648618760000        3.44114031240000        3.73290190240000
H           -2.72287561620000        2.77904927860000        3.39934592660000
O            1.57028744870000       -0.12725801170000       -3.69666841480000
H            2.12236179370000       -0.89692804340000       -3.49062887270000
H            2.05113983050000        0.68474000700000       -3.47984700630000
O           -2.92944972650000       -4.84212470760000        5.81750639330000
H           -2.49740554630000       -4.18968367150000        6.38652418840000
H           -2.97593642590000       -4.42016141200000        4.92653377470000
O            1.24000378210000       -4.67105502110000        2.51419646790000
H            1.24224694730000       -4.27357973130000        1.62861683430000
H            1.23767235680000       -5.63364776760000        2.39940952360000
O            2.32433043010000       -1.47440097180000        6.47619360260000
H            2.05862803060000       -2.25567534340000        5.97624869890000
H            2.82544471890000       -0.92983025500000        5.81414775510000
O           -0.07872544870000       -0.24027950690000        6.89324441890000
H           -0.68952227990000       -1.00497736790000        6.91251723930000
H            0.80047641940000       -0.63153283510000        6.73888606370000
O            4.13383485600000        2.63262089190000        3.15222630620000
H            4.55828526430000        2.76132392420000        4.02567798930000
H            3.55922248290000        3.39973234780000        3.03753049340000
O           -1.59558209560000        5.27626221800000       -2.12536929420000
H           -2.02081474840000        4.41881606770000       -2.04926493320000
H           -0.72691170130000        5.18232484820000       -1.69093339950000
O           -4.91002939380000        3.86136262610000        2.58506381960000
H           -4.52635191330000        4.13135196030000        3.42918383140000
H           -5.86448359590000        3.76834328340000        2.72816195560000
O           -2.78839907550000       -1.71815993380000        0.90414150980000
H           -3.28574230030000       -2.49728562680000        0.63315913780000
H           -2.68110071410000       -1.14221304600000        0.11874823710000
O            1.73402753350000       -3.42590328460000        0.08537468220000
H            2.27927733460000       -2.75270069720000        0.53046608410000
H            2.32388891210000       -4.19363689850000        0.02396561780000
O            7.40822315680000        0.71205264100000       -3.31192057710000
H            7.97319507180000        1.31518201040000       -3.82667669030000
H            6.91335626160000        1.26941758900000       -2.67329447080000
O           -3.75141419410000        1.95582018730000        0.85091304780000
H           -4.42596919020000        1.37043575750000        0.47772055770000
H           -4.19511510330000        2.54148857130000        1.48115934390000
O            4.02655160960000        2.58991380240000        0.05201137930000
H            3.71379958710000        3.44713516380000        0.39288499040000
H            3.53639804380000        1.89664692820000        0.53320052320000
O            3.08373858760000        0.70460875490000        8.16688205660000
H            2.35976458300000        1.33440510580000        8.23039494240000
H            2.70392890460000       -0.12502995580000        7.85747579270000
O           -2.94917690090000       -3.68429188780000        3.42438415850000
H           -2.60572452230000       -4.19354131520000        2.67372001230000
H           -3.90328952100000       -3.48435070730000        3.23574965060000
O           -1.99448001990000       -1.17180356480000       -6.16090396810000
H           -2.38581588400000       -0.51807453780000       -6.76165107050000
H           -1.06066598840000       -0.90005039210000       -6.08161103900000
O            2.80027559200000        6.86226833240000       -0.88361459010000
H            2.32377637940000        6.82342769560000       -1.72327732850000
H            2.18177336350000        7.33989643900000       -0.27569164870000
O           -3.08772098290000        5.76413565480000       -5.39072012080000
H           -3.46999502460000        5.83313870740000       -6.26426221220000
H           -3.40584061730000        4.91118947420000       -5.00939290090000
O            7.08078169200000       -4.46602381640000       -3.04257350880000
H            6.92660927800000       -3.53158337990000       -2.78189884590000
H            8.05257848840000       -4.56792077010000       -2.99363831820000
O           -1.73447288660000       -4.88353238210000        1.25057684220000
H           -1.04307777760000       -4.19231897820000        1.34928995320000
H           -1.97416984820000       -4.90641915380000        0.30834287850000
O          -10.96425915900000       -2.38397058580000        1.28598630650000
H          -11.19145131770000       -1.61445252040000        0.74185338860000
H          -10.47593299220000       -2.98476117200000        0.70276949620000
O           -9.30332382160000       -3.77680756900000       -0.39103369220000
H           -9.19339938410000       -4.59007076750000       -0.89041279670000
H           -8.41637713990000       -3.60965389290000       -0.00333080300000
O           -0.44831355530000       -3.36052149620000        4.45767990810000
H            0.49839935940000       -3.27461535430000        4.61503807920000
H           -0.60458101700000       -4.32468172060000        4.41742335700000
O            0.76737182840000        4.71683673990000       -0.94047622490000
H            0.75840162030000        5.12814484850000       -0.06583909290000
H            0.89028738360000        3.75707873850000       -0.76136286760000
O           -0.47700696840000        5.35286174570000       -4.71636360060000
H           -1.34388568800000        5.69283652160000       -4.99320751290000
H           -0.68637017760000        4.50814597570000       -4.25752295740000
O           -7.53057151030000       -1.35510665060000        2.11502593520000
H           -7.22665655240000       -0.45529967170000        2.33124639700000
H           -8.26327639040000       -1.59967096780000        2.71148170110000
O            8.97407290260000        3.04548846520000        3.54666224680000
H            9.54538431100000        3.18043807360000        2.77773468310000
H            9.43986109200000        2.45980083700000        4.15073856570000
O           -4.59147010010000       -6.59864402660000       -1.03333145980000
H           -3.84673911550000       -7.14595265960000       -0.68450822910000
H           -5.36291999070000       -6.89907076420000       -0.54138018050000
O            3.27243022730000        4.97454505040000        1.00547694890000
H            3.12266898180000        5.55944755610000        0.23636648580000
H            3.90938368470000        5.44731574400000        1.58245331240000
O            4.86153580280000       -0.46375424920000       -3.68632747680000
H            5.01016760140000        0.48592996800000       -3.69265935580000
H            4.25432597430000       -0.65207992820000       -2.93130235420000
O           -0.76730643060000       -6.03195848770000        4.72493182410000
H           -1.03685320870000       -6.54984326440000        3.94314823720000
H           -1.57331685490000       -5.86860156810000        5.25116551060000
O           -5.91518907720000       -5.36764746570000        4.44168020880000
H           -6.71180086210000       -5.15200408350000        3.91084255410000
H           -6.17986260250000       -5.99268071580000        5.11446080500000
O            4.64881115220000       -3.16851143320000       -0.99511607600000
H            5.44705257660000       -2.73694032930000       -1.31866135380000
H            4.84343378070000       -4.12224036380000       -0.97674387230000
O            1.08790040220000        4.11256334690000       -6.45866598820000
H            0.54910158280000        4.73497838860000       -5.92357345740000
H            0.45059901150000        3.45002322580000       -6.78294127710000
O            6.27893014090000        2.50224615290000        1.45864912460000
H            5.61656789040000        2.49697695210000        0.73374054810000
H            5.71618260740000        2.59876085270000        2.24774883370000
O           -0.85611837620000        2.21342457500000       -6.54137277570000
H           -0.30428502530000        1.40870451140000       -6.43013334860000
H           -1.13426909280000        2.44065467730000       -5.63562954740000
O           -2.08976730190000       -4.76555081340000       -1.41942366300000
H           -2.83517115600000       -4.56228891070000       -1.99318724430000
H           -1.48945428620000       -3.97181300450000       -1.42541339830000
O            0.44767603080000       -0.07219392580000       -6.11647631030000
H            1.10436883940000       -0.38960989170000       -6.74747386170000
H            0.90414034880000       -0.03351849800000       -5.24888328090000
O            2.90947388540000        4.97842616620000        4.07524894360000
H            2.68215330480000        4.55412083630000        4.92434659500000
H            3.82327763570000        5.26195314600000        4.16233927300000
O           -2.65597993860000        0.85666782110000       -7.95151504580000
H           -2.07002512700000        1.47180946450000       -7.44857467100000
H           -2.32860494710000        0.83577336740000       -8.84953054420000
O            3.47556563330000       -0.85845995670000       -1.48482156790000
H            3.49588421110000       -1.82569955070000       -1.43879297490000
H            4.20137630860000       -0.55641648000000       -0.87134129980000
O           -2.90884015330000        0.97348919020000        7.14719241040000
H           -3.42104210160000        0.29573706160000        6.67069302680000
H           -2.33170210060000        0.51129161720000        7.75554721620000
O            5.13189764090000        3.40388175200000        5.52252799620000
H            4.32462691410000        3.49667864010000        6.05214406710000
H            5.53941884530000        2.56791699870000        5.81337583640000
O            3.36002229120000        1.69611932510000       -2.33277924650000
H            3.30396999800000        0.80098820970000       -1.97759835810000
H            3.44603131000000        2.23879545050000       -1.52242851590000
O           -3.08961455630000       -3.44028900270000       -7.11131423440000
H           -2.94776100590000       -4.07582756600000       -6.39451125270000
H           -2.57406416810000       -2.64730989940000       -6.86665104420000
O           -1.07139544450000       -0.44395627570000       -3.38442689700000
H           -0.12723984600000       -0.21748771580000       -3.41402030790000
H           -1.10060419300000       -1.38881407120000       -3.63012921940000
O            2.97183347560000       -6.19137889890000       -4.07701904080000
H            2.52512088430000       -6.23215911080000       -4.93334459650000
H            2.39376221500000       -5.61585663220000       -3.52287888450000
O            7.54741840000000       -6.20688247050000        0.66458840440000
H            6.96973226740000       -6.37562190690000        1.44615006000000
H            8.12664445160000       -6.96278261650000        0.57369247040000
O            1.40967860030000       -6.39929657510000       -0.65630800950000
H            0.61728454560000       -6.82626106920000       -1.04983577580000
H            2.21027913040000       -6.85413575210000       -0.99947069020000
O           -6.95402711380000        1.24089574760000        2.44123111990000
H           -6.56389786600000        1.81268141090000        1.75245191820000
H           -7.91015793230000        1.30786621640000        2.26919111900000
O           10.21236337060000        3.49695382990000        1.07071091170000
H            9.36940741740000        3.96319053300000        0.90915231370000
H           10.52228487200000        3.20481187700000        0.19779801330000
O            8.74046304490000        2.35492686830000       -5.01305011220000
H            8.32585601040000        2.15904113680000       -5.85828279320000
H            8.37087698480000        3.20461973420000       -4.71916249840000
O           10.41714203830000        2.10846270280000       -1.33874619040000
H            9.86383244580000        1.36979933340000       -0.99370139780000
H            9.78529370080000        2.79884076290000       -1.60196111980000
O           -2.58703862620000       -0.06274884320000       -1.23058330070000
H           -3.47862082400000       -0.06981761580000       -1.62315391730000
H           -1.98609637140000       -0.32817210220000       -1.95497853530000
O            3.73232495080000        4.39482305670000       -5.98220813630000
H            2.81466804320000        4.24957389770000       -6.28308811830000
H            4.30034158930000        4.12192570610000       -6.70471480280000
O            0.52993798260000       -0.57632406430000        3.73245878200000
H            1.08417917240000       -1.36221531060000        3.85074885020000
H           -0.39368543350000       -0.80442955560000        3.90674180960000
O           -8.11304228410000       -0.60271894100000       -0.33851781370000
H           -7.90526570740000       -1.31699134280000       -0.96495546800000
H           -8.05887778510000       -1.00209749770000        0.55192201760000
O           -7.44125061450000        1.45544440900000       -6.23544838370000
H           -6.62762312100000        1.00302411930000       -6.50507853170000
H           -8.14154899540000        0.76901835120000       -6.18007322880000
O            3.93128662120000       -7.90492280910000        1.09905945180000
H            4.79061263750000       -7.93487506410000        1.53181314000000
H            4.03275992040000       -8.15891961020000        0.17504082920000
O            5.96593865830000       -3.98632622710000        1.49834063430000
H            6.47817287420000       -4.29076751610000        2.25452655350000
H            6.43777989810000       -3.22656948710000        1.11123821790000
O           -5.90965889970000        2.70077703740000        5.33960129680000
H           -6.44752131460000        2.36943843100000        6.05939450110000
H           -6.51879029350000        2.93657809800000        4.62222863180000
O            0.77624985880000        5.02728478940000        1.85172509920000
H            1.74702195830000        5.04474753460000        1.72942451100000
H            0.56836577850000        5.56333719930000        2.63533186820000
O           -6.46115991170000        6.04857278890000        4.27575652410000
H           -6.07604561910000        6.54663447850000        3.54008357460000
H           -5.71997354320000        5.79681543200000        4.83982953970000
O           -1.49052971400000        3.85544447750000        0.57967102610000
H           -1.16154095220000        4.76716342740000        0.67043485620000
H           -1.70569528950000        3.55472892190000        1.48639467810000
O            0.02472172530000        6.45427238980000        4.03071282460000
H            0.34226685500000        7.35795041770000        4.00762972140000
H           -0.94553107950000        6.45377496720000        3.94095703580000
O            3.89672550730000       -5.31142384780000        3.55962857270000
H            3.17737510260000       -5.36055620490000        4.21555139670000
H            3.46737126130000       -5.20485259950000        2.68404906360000
O            7.37121730770000       -1.72023498450000        3.58177892940000
H            8.05926047370000       -2.37885634570000        3.36428093220000
H            7.70760073740000       -0.89687576540000        3.17963974880000
O           -3.58195118800000       -2.14300081540000       -4.05463108230000
H           -2.98411909560000       -1.58786768870000       -4.57607205870000
H           -4.33944347030000       -2.29056476890000       -4.64482838730000
O           -9.46485249480000        1.13494081930000        1.43145186960000
H           -9.25344479300000        0.70919764680000        0.58845735090000
H           -9.59300516050000        2.08567465580000        1.25471765820000
O            3.25419958000000        1.34404928320000       -6.44896739630000
H            2.90906705670000        1.66378036310000       -5.60340628930000
H            4.21462466020000        1.50504308650000       -6.47596928870000
O           -3.95943452370000        3.49124038170000       -4.32172604500000
H           -4.11354833900000        3.51610448500000       -3.36851649860000
H           -3.47403222540000        2.65609900400000       -4.48824064370000
O            6.93041423450000       -1.19178166430000        6.31970553340000
H            6.25238235350000       -1.85368003380000        6.55542826840000
H            7.10828879360000       -1.32292379720000        5.37264592120000
O            4.82173089010000       -2.86322104450000        6.51749103580000
H            4.71923989200000       -2.86650533660000        5.54834055340000
H            4.03221242450000       -2.42877547360000        6.86220206360000
O           -0.40193468360000       -6.01564613600000       -4.25448921870000
H           -1.26884681700000       -5.64824847550000       -4.50047477030000
H            0.16004388380000       -5.97526659140000       -5.04469868890000
O            4.98455367790000        2.80997084960000       -4.07081217640000
H            4.44193753390000        3.40577608290000       -4.61404156070000
H            4.38483369740000        2.46173609270000       -3.36992791160000
O            5.63859724380000       -5.67321515080000       -1.18421901390000
H            6.18031351900000       -5.36347785410000       -1.94178671280000
H            6.27887234080000       -5.83718602610000       -0.46877887530000
O            3.70243098990000       -0.04979965050000        4.73651223570000
H            3.02511058630000        0.63571871810000        4.54481614660000
H            4.34936477360000        0.36461050550000        5.36424329700000
O           -0.46981799350000       -2.66446996010000        1.80818648220000
H           -0.46655715850000       -2.83778451180000        2.76833062030000
H           -1.32418670600000       -2.24280288360000        1.58283053280000
O            5.30872898260000       -0.12621761170000        2.64698551210000
H            4.67368359560000       -0.18704609880000        3.39455337160000
H            5.90688522040000       -0.87259034840000        2.74036505040000
O           11.12467894860000       -1.52144161200000       -1.77632035660000
H           11.16337028420000       -2.41955246070000       -2.12229871130000
H           11.31381290700000       -0.91290266450000       -2.50138380790000
O           -7.21499561800000       -2.64706784440000        4.87644920310000
H           -8.14509560260000       -2.67822934890000        4.62655128860000
H           -6.98685785160000       -1.69624575670000        4.92607712580000
O           -5.12834674790000       -3.29955932860000        6.54785850660000
H           -5.93899010990000       -3.35192301230000        6.02141964260000
H           -4.56870497090000       -4.04630361940000        6.27968173780000
O           -9.36166284520000        3.45563293160000       -5.20226113610000
H           -8.90278299760000        3.87820673850000       -4.46284200260000
H           -8.70166070150000        2.96707996730000       -5.70836235560000
O           -4.35154880120000       -4.21592890540000        0.27427588490000
H           -4.37008006870000       -5.01438319150000       -0.29129157760000
H           -4.25513126070000       -4.58496146950000        1.16963698350000
O           -2.05790701420000        3.56638365290000        6.66854039090000
H           -2.40337576040000        2.66509916730000        6.78357989810000
H           -1.37657376520000        3.51799521550000        5.97137835770000
O           -9.63501107550000        3.81697587220000        1.52840413090000
H          -10.47073928960000        4.14626454950000        1.85751710360000
H           -9.45711177640000        4.33790306020000        0.70029947400000
O           -4.52534912540000       -2.11072170820000       -1.51297363280000
H           -4.14335240410000       -2.12747975690000       -2.41395890410000
H           -4.31203473630000       -2.95115486550000       -1.08980835200000
O           -4.94290044640000        3.00788949880000       -1.71739476190000
H           -4.01740859340000        2.89200036130000       -1.43014926680000
H           -5.48324259630000        2.91089156160000       -0.90169768060000
O           -4.17177612850000       -0.99487715730000        5.73019008730000
H           -4.52582479010000       -1.84187029140000        6.10504757370000
H           -4.96322084280000       -0.53725976370000        5.40058982460000
O            7.33218206900000       -4.73622068050000        3.96951472810000
H            7.22203528410000       -4.46499728850000        4.88211083210000
H            8.19803157330000       -4.39734387800000        3.67577040370000
O            5.48378864670000       -0.04067242010000       -0.12364682740000
H            5.85591637690000        0.77331657860000       -0.50151002190000
H            5.43579163390000        0.06758330450000        0.83739903480000
O           -7.98121508580000       -4.86557343380000        2.76036031350000
H           -7.54613916850000       -4.34694945270000        2.04250141250000
H           -8.68371743730000       -4.30698223430000        3.09886082240000
O            2.48379253880000        7.49743233800000        3.06133245360000
H            3.41052969830000        7.60626990080000        2.82453715560000
H            2.43844889940000        6.60997186850000        3.45799932830000
O           -2.88864669710000       -5.13104684370000       -4.91685695280000
H           -3.32047129360000       -5.89989522080000       -5.29023794570000
H           -3.46018370030000       -4.84494847470000       -4.15325842050000
O           -8.61440385180000        0.39242718760000       -2.84782630290000
H           -7.86582971270000        0.11663794120000       -3.40329010240000
H           -9.03735153810000       -0.42073524710000       -2.51759984320000
O           -8.60863374910000        1.70780122690000        5.07154330060000
H           -9.39158317920000        1.24495810590000        4.73969264730000
H           -8.43480141710000        2.42700508330000        4.44464081280000
O           -9.62742827880000       -2.18777898760000        3.55599032500000
H           -9.98279175410000       -1.34682104690000        3.88843059780000
H          -10.17549004760000       -2.36615026310000        2.75683631850000
O           -5.36031676520000       -2.95909270910000        2.90588505040000
H           -5.99439112030000       -3.03646567070000        3.63764226020000
H           -5.19425472080000       -2.00094105140000        2.79703378660000
O           -4.48252568350000       -4.63465215380000       -2.89705996800000
H           -5.30960928570000       -4.41213933510000       -3.37815043320000
H           -4.65053140720000       -5.43698991360000       -2.37706525950000
O            9.02694174910000       -1.56864918720000       -3.78719675360000
H            8.61514435380000       -1.48700691930000       -4.66048313940000
H            9.58143925200000       -0.76520134830000       -3.69441204870000
O            1.29477935270000       -4.65919863860000       -2.65727972070000
H            0.53243707820000       -5.00351130670000       -3.16207265650000
H            1.30724290160000       -5.11975829820000       -1.79278261400000
O           -4.60028443750000       -0.44160235430000        2.42822094560000
H           -3.76614981430000       -0.81987263370000        2.08570572650000
H           -5.09542556800000       -0.19020496690000        1.62162938580000
O           12.41603145650000       -0.62478998180000        0.45785907560000
H           11.99687104930000       -0.97948823790000       -0.34532885550000
H           12.60233944770000       -1.36672962770000        1.03448149680000
O           -2.67101983140000       -8.08310861170000        0.01127435110000
H           -2.29158839110000       -7.89409960760000        0.88722501760000
H           -1.94906565340000       -7.98365492130000       -0.62604671920000
O           -5.31955750200000       -2.33081786560000       -6.17257454270000
H           -5.21366496870000       -1.38852642410000       -6.42092735220000
H           -4.62185598270000       -2.80330853690000       -6.67913706770000
O            1.07130790300000        7.91642452700000        0.76800831390000
H            1.51424891440000        7.84038590400000        1.63329676330000
H            0.23684678320000        7.41761974320000        0.83166428210000
O            3.67532667950000       -1.99042879720000        1.31368425660000
H            4.08955487300000       -2.31068752850000        2.12854722070000
H            4.20746563440000       -2.36089328840000        0.58836649270000
O            0.68046357930000        2.43732255440000        2.18014391400000
H           -0.20041471560000        2.03841610520000        2.30063711190000
H            0.57523807570000        3.41365912030000        2.11986673120000
O            1.72954209840000        2.55809811640000       -4.32235415100000
H            1.54894141480000        3.12322975110000       -5.09637795620000