      -----------------------------------------------------------      
     |                   =====================                   |     
     |                           x T B                           |     
     |                   =====================                   |     
     |                         S. Grimme                         |     
     |          Mulliken Center for Theoretical Chemistry        |     
     |                    University of Bonn                     |     
      -----------------------------------------------------------      

   * xtb version 6.5.1 (579679a) compiled by 'ehlert@majestix' on 2022-07-11

   xtb is free software: you can redistribute it and/or modify it under
   the terms of the GNU Lesser General Public License as published by
   the Free Software Foundation, either version 3 of the License, or
   (at your option) any later version.
   
   xtb is distributed in the hope that it will be useful,
   but WITHOUT ANY WARRANTY; without even the implied warranty of
   MERCHANTABILITY or FITNESS FOR A PARTICULAR PURPOSE.  See the
   GNU Lesser General Public License for more details.
   
   Cite this work as:
   * C. Bannwarth, E. Caldeweyher, S. Ehlert, A. Hansen, P. Pracht,
     J. Seibert, S. Spicher, S. Grimme, WIREs Comput. Mol. Sci., 2020, 11,
     e01493. DOI: 10.1002/wcms.1493
   
   for GFN2-xTB:
   * C. Bannwarth, S. Ehlert and S. Grimme., J. Chem. Theory Comput., 2019,
     15, 1652-1671. DOI: 10.1021/acs.jctc.8b01176
   for GFN1-xTB:
   * S. Grimme, C. Bannwarth, P. Shushkov, J. Chem. Theory Comput., 2017,
     13, 1989-2009. DOI: 10.1021/acs.jctc.7b00118
   for GFN0-xTB:
   * P. Pracht, E. Caldeweyher, S. Ehlert, S. Grimme, ChemRxiv, 2019, preprint.
     DOI: 10.26434/chemrxiv.8326202.v1
   for GFN-FF:
   * S. Spicher and S. Grimme, Angew. Chem. Int. Ed., 2020, 59, 15665-15673.
     DOI: 10.1002/anie.202004239
   
   for ALPB and GBSA implicit solvation:
   * S. Ehlert, M. Stahn, S. Spicher, S. Grimme, J. Chem. Theory Comput.,
     2021, 17, 4250-4261. DOI: 10.1021/acs.jctc.1c00471
   
   for DFT-D4:
   * E. Caldeweyher, C. Bannwarth and S. Grimme, J. Chem. Phys., 2017,
     147, 034112. DOI: 10.1063/1.4993215
   * E. Caldeweyher, S. Ehlert, A. Hansen, H. Neugebauer, S. Spicher,
     C. Bannwarth and S. Grimme, J. Chem. Phys., 2019, 150, 154122.
     DOI: 10.1063/1.5090222
   * E. Caldeweyher, J.-M. Mewes, S. Ehlert and S. Grimme, Phys. Chem. Chem. Phys.
     2020, 22, 8499-8512. DOI: 10.1039/D0CP00502A
   
   for sTDA-xTB:
   * S. Grimme and C. Bannwarth, J. Chem. Phys., 2016, 145, 054103.
     DOI: 10.1063/1.4959605
   
   in the mass-spec context:
   * V. Asgeirsson, C. Bauer and S. Grimme, Chem. Sci., 2017, 8, 4879.
     DOI: 10.1039/c7sc00601b
   * J. Koopman and S. Grimme, ACS Omega 2019, 4, 12, 15120-15133.
     DOI: 10.1021/acsomega.9b02011
   
   for metadynamics refer to:
   * S. Grimme, J. Chem. Theory Comput., 2019, 155, 2847-2862
     DOI: 10.1021/acs.jctc.9b00143
   
   for SPH calculations refer to:
   * S. Spicher and S. Grimme, J. Chem. Theory Comput., 2021, 17, 1701-1714
     DOI: 10.1021/acs.jctc.0c01306
   
   with help from (in alphabetical order)
   P. Atkinson, C. Bannwarth, F. Bohle, G. Brandenburg, E. Caldeweyher
   M. Checinski, S. Dohm, S. Ehlert, S. Ehrlich, I. Gerasimov, C. Hölzer
   A. Katbashev, J. Koopman, C. Lavigne, S. Lehtola, F. März, M. Müller,
   F. Musil, H. Neugebauer, J. Pisarek, C. Plett, P. Pracht, F. Pultar,
   J. Seibert, P. Shushkov, S. Spicher, M. Stahn, M. Steiner, T. Strunk,
   J. Stückrath, T. Rose, and J. Unsleber
   
 * started run on 2022/11/24 at 12:04:44.000     

           -------------------------------------------------
          |                Calculation Setup                |
           -------------------------------------------------

          program call               : xtb solvent_cluster.coord --gfn2 --input xcontrol --opt 1
          hostname                   : cn0430
          coordinate file            : solvent_cluster.coord
          omp threads                :                     2

   ID    Z sym.   atoms
    1    8 o      1, 4, 7, 10, 13, 16, 19, 22, 25, 28, 31, 34, 37, 40, 43,
                  46, 49, 52, 55, 58, 61, 64, 67, 70, 73, 76, 79, 82, 85, 88,
                  91, 94, 97, 100, 103, 106, 109, 112, 115, 118, 121, 124,
                  127, 130, 133, 136, 139, 142, 145, 148, 151, 154, 157, 160,
                  163, 166, 169, 172, 175, 178, 181, 184, 187, 190, 193, 196,
                  199, 202, 205, 208, 211, 214, 217, 220, 223, 226, 229, 232,
                  235, 238, 241, 244, 247, 250, 253, 256, 259, 262, 265, 268,
                  271, 274, 277, 280, 283, 286, 289, 292, 295, 298, 301, 304,
                  307, 310, 313, 316, 319, 322, 325, 328, 331, 334, 337, 340,
                  343, 346, 349, 352, 355, 358, 361, 364, 367, 370, 373, 376,
                  379, 382, 385, 388, 391, 394, 397, 400, 403, 406, 409, 412,
                  415, 418, 421, 424, 427, 430, 433, 436, 439, 442, 445, 448,
                  451, 454, 457, 460, 463, 466, 469, 472, 475, 478, 481, 484,
                  487, 490, 493, 496, 499, 502, 505, 508, 511, 514, 517, 520,
                  523, 526, 529, 532, 535, 538, 541, 544, 547, 550, 553, 556,
                  559, 562, 565, 568, 571, 574, 577, 580, 583, 586, 589, 592,
                  595, 598, 601, 604, 607, 610, 613, 616, 619, 622, 625, 628,
                  631, 634, 637, 640, 643, 646, 649, 652, 655, 658, 661, 664,
                  667, 670, 673, 676, 679, 682, 685, 688, 691, 694, 697, 700,
                  703, 706, 709, 712, 715, 718, 721, 724, 727, 730, 733, 736,
                  739, 742, 745, 748, 751, 754
    2    1 h      2, 3, 5, 6, 8, 9, 11, 12, 14, 15, 17, 18, 20, 21, 23, 24,
                  26, 27, 29, 30, 32, 33, 35, 36, 38, 39, 41, 42, 44, 45, 47,
                  48, 50, 51, 53, 54, 56, 57, 59, 60, 62, 63, 65, 66, 68, 69,
                  71, 72, 74, 75, 77, 78, 80, 81, 83, 84, 86, 87, 89, 90, 92,
                  93, 95, 96, 98, 99, 101, 102, 104, 105, 107, 108, 110, 111,
                  113, 114, 116, 117, 119, 120, 122, 123, 125, 126, 128, 129,
                  131, 132, 134, 135, 137, 138, 140, 141, 143, 144, 146, 147,
                  149, 150, 152, 153, 155, 156, 158, 159, 161, 162, 164, 165,
                  167, 168, 170, 171, 173, 174, 176, 177, 179, 180, 182, 183,
                  185, 186, 188, 189, 191, 192, 194, 195, 197, 198, 200, 201,
                  203, 204, 206, 207, 209, 210, 212, 213, 215, 216, 218, 219,
                  221, 222, 224, 225, 227, 228, 230, 231, 233, 234, 236, 237,
                  239, 240, 242, 243, 245, 246, 248, 249, 251, 252, 254, 255,
                  257, 258, 260, 261, 263, 264, 266, 267, 269, 270, 272, 273,
                  275, 276, 278, 279, 281, 282, 284, 285, 287, 288, 290, 291,
                  293, 294, 296, 297, 299, 300, 302, 303, 305, 306, 308, 309,
                  311, 312, 314, 315, 317, 318, 320, 321, 323, 324, 326, 327,
                  329, 330, 332, 333, 335, 336, 338, 339, 341, 342, 344, 345,
                  347, 348, 350, 351, 353, 354, 356, 357, 359, 360, 362, 363,
                  365, 366, 368, 369, 371, 372, 374, 375, 377, 378, 380, 381,
                  383, 384, 386, 387, 389, 390, 392, 393, 395, 396, 398, 399,
                  401, 402, 404, 405, 407, 408, 410, 411, 413, 414, 416, 417,
                  419, 420, 422, 423, 425, 426, 428, 429, 431, 432, 434, 435,
                  437, 438, 440, 441, 443, 444, 446, 447, 449, 450, 452, 453,
                  455, 456, 458, 459, 461, 462, 464, 465, 467, 468, 470, 471,
                  473, 474, 476, 477, 479, 480, 482, 483, 485, 486, 488, 489,
                  491, 492, 494, 495, 497, 498, 500, 501, 503, 504, 506, 507,
                  509, 510, 512, 513, 515, 516, 518, 519, 521, 522, 524, 525,
                  527, 528, 530, 531, 533, 534, 536, 537, 539, 540, 542, 543,
                  545, 546, 548, 549, 551, 552, 554, 555, 557, 558, 560, 561,
                  563, 564, 566, 567, 569, 570, 572, 573, 575, 576, 578, 579,
                  581, 582, 584, 585, 587, 588, 590, 591, 593, 594, 596, 597,
                  599, 600, 602, 603, 605, 606, 608, 609, 611, 612, 614, 615,
                  617, 618, 620, 621, 623, 624, 626, 627, 629, 630, 632, 633,
                  635, 636, 638, 639, 641, 642, 644, 645, 647, 648, 650, 651,
                  653, 654, 656, 657, 659, 660, 662, 663, 665, 666, 668, 669,
                  671, 672, 674, 675, 677, 678, 680, 681, 683, 684, 686, 687,
                  689, 690, 692, 693, 695, 696, 698, 699, 701, 702, 704, 705,
                  707, 708, 710, 711, 713, 714, 716, 717, 719, 720, 722, 723,
                  725, 726, 728, 729, 731, 732, 734, 735, 737, 738, 740, 741,
                  743, 744, 746, 747, 749, 750, 752, 753, 755, 756

molecular fragmentation (1/2 indicates fragments):
111222222222222222222222222222222222222222222222222222222222222222222222
222222222222222222222222222222222222222222222222222222222222222222222222
222222222222222222222222222222222222222222222222222222222222222222222222
222222222222222222222222222222222222222222222222222222222222222222222222
222222222222222222222222222222222222222222222222222222222222222222222222
222222222222222222222222222222222222222222222222222222222222222222222222
222222222222222222222222222222222222222222222222222222222222222222222222
222222222222222222222222222222222222222222222222222222222222222222222222
222222222222222222222222222222222222222222222222222222222222222222222222
222222222222222222222222222222222222222222222222222222222222222222222222
222222222222222222222222222222222222
# atoms in fragment 1/2:     3   753
 fragment masses (1/2) :       18.02     4521.84
CMA distance (Bohr)    :  15.876
constraining FC (au)   :  0.0500

           -------------------------------------------------
          |                 G F N 2 - x T B                 |
           -------------------------------------------------

        Reference                      10.1021/acs.jctc.8b01176
      * Hamiltonian:
        H0-scaling (s, p, d)           1.850000    2.230000    2.230000
        zeta-weighting                 0.500000
      * Dispersion:
        s8                             2.700000
        a1                             0.520000
        a2                             5.000000
        s9                             5.000000
      * Repulsion:
        kExp                           1.500000    1.000000
        rExp                           1.000000
      * Coulomb:
        alpha                          2.000000
        third order                    shell-resolved
        anisotropic                    true
        a3                             3.000000
        a5                             4.000000
        cn-shift                       1.200000
        cn-exp                         4.000000
        max-rad                        5.000000


          ...................................................
          :                      SETUP                      :
          :.................................................:
          :  # basis functions                1512          :
          :  # atomic orbitals                1512          :
          :  # shells                         1008          :
          :  # electrons                      2016          :
          :  max. iterations                   250          :
          :  Hamiltonian                  GFN2-xTB          :
          :  restarted?                      false          :
          :  GBSA solvation                  false          :
          :  PC potential                    false          :
          :  electronic temp.          300.0000000     K    :
          :  accuracy                    1.0000000          :
          :  -> integral cutoff          0.2500000E+02      :
          :  -> integral neglect         0.1000000E-07      :
          :  -> SCF convergence          0.1000000E-05 Eh   :
          :  -> wf. convergence          0.1000000E-03 e    :
          :  Broyden damping             0.4000000          :
          ...................................................

 iter      E             dE          RMSdq      gap      omega  full diag
   1  -1290.9725588 -0.129097E+04  0.407E+00    8.48       0.0  T
   2  -1291.0494993 -0.769405E-01  0.242E+00    7.40       1.0  T
   3  -1291.0812603 -0.317610E-01  0.211E-01    5.75       1.0  T
   4  -1291.0866262 -0.536595E-02  0.461E-02    6.24       1.0  T
   5  -1291.0867138 -0.875651E-04  0.312E-02    6.16       1.0  T
   6  -1291.0867553 -0.415173E-04  0.441E-03    6.19       1.0  T
   7  -1291.0867579 -0.261374E-05  0.733E-04    6.19       5.0  T
   8  -1291.0867580 -0.275409E-07  0.373E-04    6.19       9.7  T
   9  -1291.0867580 -0.132118E-07  0.705E-05    6.19      51.6  T

   *** convergence criteria satisfied after 9 iterations ***

         #    Occupation            Energy/Eh            Energy/eV
      -------------------------------------------------------------
         1        2.0000           -0.6979689             -18.9927
       ...           ...                  ...                  ...
      1002        2.0000           -0.3468098              -9.4372
      1003        2.0000           -0.3435665              -9.3489
      1004        2.0000           -0.3416488              -9.2967
      1005        2.0000           -0.3385759              -9.2131
      1006        2.0000           -0.3364931              -9.1564
      1007        2.0000           -0.3116805              -8.4813
      1008        2.0000           -0.3092258              -8.4145 (HOMO)
      1009                         -0.0817007              -2.2232 (LUMO)
      1010                         -0.0656437              -1.7863
      1011                         -0.0627894              -1.7086
      1012                         -0.0563965              -1.5346
      1013                         -0.0507615              -1.3813
       ...                                ...                  ...
      1512                          0.4829880              13.1428
      -------------------------------------------------------------
                  HL-Gap            0.2275251 Eh            6.1913 eV
             Fermi-level           -0.1954632 Eh           -5.3188 eV

 SCC (total)                   0 d,  0 h,  0 min, 21.255 sec
 SCC setup                      ...        0 min,  0.041 sec (  0.195%)
 Dispersion                     ...        0 min,  0.111 sec (  0.523%)
 classical contributions        ...        0 min,  0.023 sec (  0.110%)
 integral evaluation            ...        0 min,  0.618 sec (  2.906%)
 iterations                     ...        0 min,  7.905 sec ( 37.190%)
 molecular gradient             ...        0 min, 12.493 sec ( 58.776%)
 printout                       ...        0 min,  0.064 sec (  0.299%)

         :::::::::::::::::::::::::::::::::::::::::::::::::::::
         ::                     SUMMARY                     ::
         :::::::::::::::::::::::::::::::::::::::::::::::::::::
         :: total energy           -1283.288584102578 Eh    ::
         :: gradient norm              0.102934679694 Eh/a0 ::
         :: HOMO-LUMO gap              6.191272039616 eV    ::
         ::.................................................::
         :: SCC energy             -1291.086757968679 Eh    ::
         :: -> isotropic ES            7.148886645387 Eh    ::
         :: -> anisotropic ES         -1.608455905406 Eh    ::
         :: -> anisotropic XC         -0.128121444163 Eh    ::
         :: -> dispersion             -0.796064618505 Eh    ::
         :: repulsion energy           7.640636460338 Eh    ::
         :: add. restraining           0.000000000000 Eh    ::
         :: total charge               0.000000000000 e     ::
         :::::::::::::::::::::::::::::::::::::::::::::::::::::

      ----------------------------------------------------------- 
     |                       L-ANC optimizer                     |
      ----------------------------------------------------------- 
          low memory version by Sebastian Ehlert

          ...................................................
          :                      SETUP                      :
          :.................................................:
          :   energy convergence        0.1000000E-05 Eh    :
          :   grad. convergence         0.8000000E-03 Eh/a0 :
          :   optimization log               true           :
          :   writing optlog all                1     steps :
          :   Hessian reset                    20     steps :
          :   maximium step len.        1.0000000     a0    :
          :   LBFGS images                     20           :
          ...................................................
 * calculating model hessian...
Using Lindh-Hessian (1995)
 Shifting diagonal of input Hessian by   1.000012209656575E-002
 Lowest  eigenvalues of input Hessian
    0.010000    0.010000   -0.000000   -0.000000   -0.000000   -0.000000
   -0.000000   -0.000000   -0.000000   -0.000000   -0.000000   -0.000000
   -0.000000   -0.000000   -0.000000   -0.000000   -0.000000   -0.000000
 Highest eigenvalues
    0.316020    0.319233    1.219644    1.227660    1.444082    1.445207
 

........................................................................
.............................. CYCLE    1 ..............................
........................................................................
   1  -1291.0870590 -0.129109E+04  0.208E-02    6.23       0.0  T
   2  -1291.0870763 -0.172727E-04  0.125E-02    6.23       1.0  T
   3  -1291.0870799 -0.363631E-05  0.247E-03    6.23       1.5  T
   4  -1291.0870804 -0.497406E-06  0.386E-04    6.23       9.4  T
   5  -1291.0870804 -0.201726E-08  0.508E-05    6.23      71.5  T
     SCC iter.                  ...        0 min,  3.870 sec
     gradient                   ...        0 min, 12.525 sec
 * total energy  : -1283.2898304 Eh     change       -0.1246293E-02 Eh
   gradient norm :     0.0088822 Eh/a0  converged?    E=F G=F D=F
   step length   :     0.3363924 a0

........................................................................
.............................. CYCLE    2 ..............................
........................................................................
   1  -1291.0893631 -0.129109E+04  0.945E-03    6.25       0.0  T
   2  -1291.0893643 -0.116466E-05  0.582E-03    6.25       1.0  T
   3  -1291.0893647 -0.457537E-06  0.548E-04    6.26       6.6  T
   4  -1291.0893647 -0.301111E-07  0.154E-04    6.26      23.7  T
     SCC iter.                  ...        0 min,  2.970 sec
     gradient                   ...        0 min, 12.557 sec
 * total energy  : -1283.2902197 Eh     change       -0.3892800E-03 Eh
   gradient norm :     0.0028202 Eh/a0  converged?    E=F G=F D=F
   step length   :     0.1827516 a0

........................................................................
.............................. CYCLE    3 ..............................
........................................................................
   1  -1291.0880244 -0.129109E+04  0.991E-03    6.26       0.0  T
   2  -1291.0880262 -0.177917E-05  0.605E-03    6.27       1.0  T
   3  -1291.0880268 -0.558495E-06  0.728E-04    6.28       5.0  T
   4  -1291.0880268 -0.548309E-07  0.171E-04    6.27      21.3  T
     SCC iter.                  ...        0 min,  2.816 sec
     gradient                   ...        0 min, 12.566 sec
 * total energy  : -1283.2902967 Eh     change       -0.7699492E-04 Eh
   gradient norm :     0.0068462 Eh/a0  converged?    E=F G=F D=F
   step length   :     0.2102866 a0

........................................................................
.............................. CYCLE    4 ..............................
........................................................................
   1  -1291.0895640 -0.129109E+04  0.673E-03    6.29       0.0  T
   2  -1291.0895645 -0.526019E-06  0.417E-03    6.29       1.0  T
   3  -1291.0895648 -0.259320E-06  0.343E-04    6.29      10.6  T
   4  -1291.0895648 -0.811292E-08  0.984E-05    6.30      37.0  T
     SCC iter.                  ...        0 min,  2.701 sec
     gradient                   ...        0 min, 12.690 sec
 * total energy  : -1283.2903758 Eh     change       -0.7908371E-04 Eh
   gradient norm :     0.0019153 Eh/a0  converged?    E=F G=F D=F
   step length   :     0.0847137 a0

........................................................................
.............................. CYCLE    5 ..............................
........................................................................
   1  -1291.0892146 -0.129109E+04  0.562E-03    6.29       0.0  T
   2  -1291.0892148 -0.197720E-06  0.344E-03    6.29       1.1  T
   3  -1291.0892149 -0.927057E-07  0.226E-04    6.29      16.1  T
   4  -1291.0892149 -0.338173E-08  0.684E-05    6.29      53.1  T
     SCC iter.                  ...        0 min,  2.539 sec
     gradient                   ...        0 min, 12.748 sec
 * total energy  : -1283.2904269 Eh     change       -0.5114429E-04 Eh
   gradient norm :     0.0040708 Eh/a0  converged?    E=F G=F D=F
   step length   :     0.0881190 a0

........................................................................
.............................. CYCLE    6 ..............................
........................................................................
   1  -1291.0862109 -0.129109E+04  0.181E-02    6.29       0.0  T
   2  -1291.0862122 -0.130691E-05  0.110E-02    6.28       1.0  T
   3  -1291.0862129 -0.676721E-06  0.609E-04    6.28       6.0  T
   4  -1291.0862129 -0.163172E-07  0.184E-04    6.28      19.8  T
     SCC iter.                  ...        0 min,  2.489 sec
     gradient                   ...        0 min, 12.777 sec
 * total energy  : -1283.2904631 Eh     change       -0.3622854E-04 Eh
   gradient norm :     0.0159545 Eh/a0  converged?    E=F G=F D=F
   step length   :     0.3202702 a0

........................................................................
.............................. CYCLE    7 ..............................
........................................................................
   1  -1291.0887553 -0.129109E+04  0.859E-03    6.29       0.0  T
   2  -1291.0887558 -0.538846E-06  0.523E-03    6.28       1.0  T
   3  -1291.0887561 -0.266043E-06  0.428E-04    6.28       8.5  T
   4  -1291.0887561 -0.108735E-07  0.136E-04    6.28      26.8  T
     SCC iter.                  ...        0 min,  2.497 sec
     gradient                   ...        0 min, 12.802 sec
 * total energy  : -1283.2905504 Eh     change       -0.8723371E-04 Eh
   gradient norm :     0.0051506 Eh/a0  converged?    E=F G=F D=F
   step length   :     0.1213989 a0

........................................................................
.............................. CYCLE    8 ..............................
........................................................................
   1  -1291.0888978 -0.129109E+04  0.560E-03    6.29       0.0  T
   2  -1291.0888980 -0.181666E-06  0.339E-03    6.28       1.1  T
   3  -1291.0888980 -0.605794E-07  0.224E-04    6.28      16.2  T
   4  -1291.0888980 -0.585260E-08  0.648E-05    6.28      56.1  T
     SCC iter.                  ...        0 min,  2.477 sec
     gradient                   ...        0 min, 12.810 sec
 * total energy  : -1283.2906440 Eh     change       -0.9360314E-04 Eh
   gradient norm :     0.0047790 Eh/a0  converged?    E=F G=F D=F
   step length   :     0.1228163 a0

........................................................................
.............................. CYCLE    9 ..............................
........................................................................
   1  -1291.0757314 -0.129108E+04  0.473E-02    6.23       0.0  T
   2  -1291.0757404 -0.898634E-05  0.286E-02    6.19       1.0  T
   3  -1291.0757443 -0.390170E-05  0.160E-03    6.15       2.3  T
   4  -1291.0757445 -0.206799E-06  0.559E-04    6.15       6.5  T
   5  -1291.0757445 -0.857221E-08  0.776E-05    6.15      46.9  T
     SCC iter.                  ...        0 min,  3.077 sec
     gradient                   ...        0 min, 12.811 sec
 * total energy  : -1283.2894426 Eh     change        0.1201403E-02 Eh
   gradient norm :     0.0513015 Eh/a0  converged?    E=F G=F D=F
   step length   :    64.0208354 a0

........................................................................
.............................. CYCLE   10 ..............................
........................................................................
   1  -1291.0902802 -0.129109E+04  0.411E-02    6.20       0.0  T
   2  -1291.0902873 -0.709729E-05  0.248E-02    6.23       1.0  T
   3  -1291.0902907 -0.339801E-05  0.147E-03    6.28       2.5  T
   4  -1291.0902909 -0.137333E-06  0.508E-04    6.28       7.2  T
   5  -1291.0902909 -0.798696E-08  0.673E-05    6.28      54.0  T
     SCC iter.                  ...        0 min,  3.112 sec
     gradient                   ...        0 min, 12.831 sec
 * total energy  : -1283.2908490 Eh     change       -0.1406448E-02 Eh
   gradient norm :     0.0060618 Eh/a0  converged?    E=F G=F D=F
   step length   :     0.7519255 a0

........................................................................
.............................. CYCLE   11 ..............................
........................................................................
   1  -1291.0903142 -0.129109E+04  0.682E-03    6.28       0.0  T
   2  -1291.0903145 -0.288730E-06  0.413E-03    6.27       1.0  T
   3  -1291.0903146 -0.947143E-07  0.283E-04    6.27      12.9  T
   4  -1291.0903146 -0.971318E-08  0.829E-05    6.27      43.9  T
     SCC iter.                  ...        0 min,  2.514 sec
     gradient                   ...        0 min, 12.838 sec
 * total energy  : -1283.2910219 Eh     change       -0.1729071E-03 Eh
   gradient norm :     0.0050113 Eh/a0  converged?    E=F G=F D=F
   step length   :     0.1873505 a0

........................................................................
.............................. CYCLE   12 ..............................
........................................................................
   1  -1291.0807443 -0.129108E+04  0.381E-02    6.24       0.0  T
   2  -1291.0807533 -0.898936E-05  0.232E-02    6.20       1.0  T
   3  -1291.0807570 -0.374008E-05  0.165E-03    6.16       2.2  T
   4  -1291.0807573 -0.249712E-06  0.569E-04    6.17       6.4  T
   5  -1291.0807573 -0.109176E-07  0.731E-05    6.17      49.8  T
     SCC iter.                  ...        0 min,  3.042 sec
     gradient                   ...        0 min, 12.836 sec
 * total energy  : -1283.2908798 Eh     change        0.1420935E-03 Eh
   gradient norm :     0.0347022 Eh/a0  converged?    E=F G=F D=F
   step length   :     3.7973242 a0

........................................................................
.............................. CYCLE   13 ..............................
........................................................................
   1  -1291.0903332 -0.129109E+04  0.281E-02    6.19       0.0  T
   2  -1291.0903393 -0.609422E-05  0.170E-02    6.23       1.0  T
   3  -1291.0903420 -0.270038E-05  0.141E-03    6.26       2.6  T
   4  -1291.0903421 -0.160070E-06  0.489E-04    6.26       7.4  T
   5  -1291.0903421 -0.864270E-08  0.509E-05    6.26      71.4  T
     SCC iter.                  ...        0 min,  3.068 sec
     gradient                   ...        0 min, 12.837 sec
 * total energy  : -1283.2913169 Eh     change       -0.4370318E-03 Eh
   gradient norm :     0.0085296 Eh/a0  converged?    E=F G=F D=F
   step length   :     0.6577019 a0

........................................................................
.............................. CYCLE   14 ..............................
........................................................................
   1  -1291.0899050 -0.129109E+04  0.803E-03    6.26       0.0  T
   2  -1291.0899057 -0.779207E-06  0.487E-03    6.25       1.0  T
   3  -1291.0899060 -0.299613E-06  0.505E-04    6.25       7.2  T
   4  -1291.0899061 -0.237526E-07  0.157E-04    6.25      23.1  T
     SCC iter.                  ...        0 min,  2.388 sec
     gradient                   ...        0 min, 12.835 sec
 * total energy  : -1283.2915100 Eh     change       -0.1931620E-03 Eh
   gradient norm :     0.0044341 Eh/a0  converged?    E=F G=F D=F
   step length   :     0.2028742 a0

........................................................................
.............................. CYCLE   15 ..............................
........................................................................
   1  -1291.0795423 -0.129108E+04  0.330E-02    6.21       0.0  T
   2  -1291.0795499 -0.755128E-05  0.201E-02    6.18       1.0  T
   3  -1291.0795532 -0.335717E-05  0.155E-03    6.14       2.4  T
   4  -1291.0795534 -0.203301E-06  0.543E-04    6.14       6.7  T
   5  -1291.0795534 -0.113250E-07  0.690E-05    6.14      52.7  T
     SCC iter.                  ...        0 min,  2.961 sec
     gradient                   ...        0 min, 12.814 sec
 * total energy  : -1283.2907129 Eh     change        0.7971470E-03 Eh
   gradient norm :     0.0365665 Eh/a0  converged?    E=F G=F D=F
   step length   :     0.9236187 a0

........................................................................
.............................. CYCLE   16 ..............................
........................................................................
   1  -1291.0896819 -0.129109E+04  0.272E-02    6.18       0.0  T
   2  -1291.0896873 -0.534681E-05  0.164E-02    6.21       1.0  T
   3  -1291.0896897 -0.244021E-05  0.132E-03    6.24       2.7  T
   4  -1291.0896898 -0.136438E-06  0.461E-04    6.24       7.9  T
   5  -1291.0896898 -0.816908E-08  0.536E-05    6.24      67.9  T
     SCC iter.                  ...        0 min,  2.989 sec
     gradient                   ...        0 min, 12.802 sec
 * total energy  : -1283.2916727 Eh     change       -0.9598084E-03 Eh
   gradient norm :     0.0026029 Eh/a0  converged?    E=F G=F D=F
   step length   :     0.7262631 a0

........................................................................
.............................. CYCLE   17 ..............................
........................................................................
   1  -1291.0894421 -0.129109E+04  0.433E-03    6.24       0.0  T
   2  -1291.0894422 -0.148488E-06  0.263E-03    6.24       1.4  T
   3  -1291.0894423 -0.520276E-07  0.213E-04    6.23      17.1  T
   4  -1291.0894423 -0.529440E-08  0.676E-05    6.23      53.8  T
     SCC iter.                  ...        0 min,  2.417 sec
     gradient                   ...        0 min, 12.708 sec
 * total energy  : -1283.2917507 Eh     change       -0.7797878E-04 Eh
   gradient norm :     0.0032078 Eh/a0  converged?    E=F G=F D=F
   step length   :     0.1237914 a0

........................................................................
.............................. CYCLE   18 ..............................
........................................................................
   1  -1291.0868364 -0.129109E+04  0.171E-02    6.23       0.0  T
   2  -1291.0868378 -0.149277E-05  0.104E-02    6.22       1.0  T
   3  -1291.0868385 -0.608790E-06  0.661E-04    6.21       5.5  T
   4  -1291.0868385 -0.446851E-07  0.226E-04    6.21      16.1  T
     SCC iter.                  ...        0 min,  2.400 sec
     gradient                   ...        0 min, 12.671 sec
 * total energy  : -1283.2917571 Eh     change       -0.6430557E-05 Eh
   gradient norm :     0.0149082 Eh/a0  converged?    E=F G=F D=F
   step length   :     0.4495201 a0

........................................................................
.............................. CYCLE   19 ..............................
........................................................................
   1  -1291.0889767 -0.129109E+04  0.850E-03    6.21       0.0  T
   2  -1291.0889773 -0.608914E-06  0.517E-03    6.21       1.0  T
   3  -1291.0889776 -0.252739E-06  0.439E-04    6.21       8.3  T
   4  -1291.0889776 -0.159362E-07  0.135E-04    6.21      26.9  T
     SCC iter.                  ...        0 min,  2.412 sec
     gradient                   ...        0 min, 12.696 sec
 * total energy  : -1283.2918649 Eh     change       -0.1078600E-03 Eh
   gradient norm :     0.0066533 Eh/a0  converged?    E=F G=F D=F
   step length   :     0.1964648 a0

........................................................................
.............................. CYCLE   20 ..............................
........................................................................
   1  -1291.0896678 -0.129109E+04  0.311E-03    6.22       0.0  T
   2  -1291.0896680 -0.190481E-06  0.193E-03    6.23       1.9  T
   3  -1291.0896681 -0.945395E-07  0.248E-04    6.23      14.6  T
   4  -1291.0896681 -0.426735E-08  0.785E-05    6.23      46.3  T
     SCC iter.                  ...        0 min,  2.411 sec
     gradient                   ...        0 min, 12.605 sec
 * total energy  : -1283.2918954 Eh     change       -0.3047933E-04 Eh
   gradient norm :     0.0037811 Eh/a0  converged?    E=F G=F D=F
   step length   :     0.0539607 a0
 * RMSD in coord.:     0.0775496 a0     energy gain  -0.3311323E-02 Eh
 * calculating model hessian...
Using Lindh-Hessian (1995)
 Shifting diagonal of input Hessian by   1.000000000000019E-002
 Lowest  eigenvalues of input Hessian
   -0.000000   -0.000000   -0.000000   -0.000000   -0.000000   -0.000000
   -0.000000   -0.000000   -0.000000   -0.000000   -0.000000   -0.000000
   -0.000000   -0.000000   -0.000000   -0.000000   -0.000000   -0.000000
 Highest eigenvalues
    0.309629    0.318465    1.232102    1.249142    1.406648    1.447257
 

........................................................................
.............................. CYCLE   21 ..............................
........................................................................
   1  -1291.0901551 -0.129109E+04  0.619E-03    6.24       0.0  T
   2  -1291.0901553 -0.175279E-06  0.379E-03    6.23       1.0  T
   3  -1291.0901554 -0.771672E-07  0.208E-04    6.23      17.5  T
   4  -1291.0901554 -0.355567E-08  0.635E-05    6.23      57.3  T
     SCC iter.                  ...        0 min,  2.440 sec
     gradient                   ...        0 min, 12.629 sec
 * total energy  : -1283.2919824 Eh     change       -0.8701260E-04 Eh
   gradient norm :     0.0020981 Eh/a0  converged?    E=F G=F D=F
   step length   :     0.0768023 a0

........................................................................
.............................. CYCLE   22 ..............................
........................................................................
   1  -1291.0730169 -0.129107E+04  0.640E-02    6.12       0.0  T
   2  -1291.0730373 -0.204090E-04  0.389E-02    6.12       1.0  T
   3  -1291.0730473 -0.995174E-05  0.250E-03    6.10       1.5  T
   4  -1291.0730477 -0.410079E-06  0.827E-04    6.09       4.4  T
   5  -1291.0730477 -0.237405E-07  0.138E-04    6.09      26.3  T
     SCC iter.                  ...        0 min,  2.984 sec
     gradient                   ...        0 min, 12.536 sec
 * total energy  : -1283.2876715 Eh     change        0.4310937E-02 Eh
   gradient norm :     0.0770163 Eh/a0  converged?    E=F G=F D=F
   step length   :     0.8508292 a0

........................................................................
.............................. CYCLE   23 ..............................
........................................................................
   1  -1291.0911189 -0.129109E+04  0.599E-02    6.16       0.0  T
   2  -1291.0911445 -0.255738E-04  0.363E-02    6.18       1.0  T
   3  -1291.0911585 -0.140236E-04  0.295E-03    6.21       1.2  T
   4  -1291.0911589 -0.442717E-06  0.861E-04    6.22       4.2  T
   5  -1291.0911590 -0.387370E-07  0.162E-04    6.22      22.4  T
     SCC iter.                  ...        0 min,  3.003 sec
     gradient                   ...        0 min, 12.482 sec
 * total energy  : -1283.2921077 Eh     change       -0.4436155E-02 Eh
   gradient norm :     0.0051512 Eh/a0  converged?    E=F G=F D=F
   step length   :     0.7251033 a0

........................................................................
.............................. CYCLE   24 ..............................
........................................................................
   1  -1291.0909302 -0.129109E+04  0.576E-03    6.22       0.0  T
   2  -1291.0909303 -0.114910E-06  0.348E-03    6.22       1.0  T
   3  -1291.0909304 -0.327323E-07  0.178E-04    6.21      20.4  T
   4  -1291.0909304 -0.440832E-08  0.533E-05    6.21      68.2  T
     SCC iter.                  ...        0 min,  2.398 sec
     gradient                   ...        0 min, 12.503 sec
 * total energy  : -1283.2922144 Eh     change       -0.1066948E-03 Eh
   gradient norm :     0.0041483 Eh/a0  converged?    E=F G=F D=F
   step length   :     0.0975864 a0

........................................................................
.............................. CYCLE   25 ..............................
........................................................................
   1  -1291.0681310 -0.129107E+04  0.571E-02    6.17       0.0  T
   2  -1291.0681430 -0.120183E-04  0.344E-02    6.15       1.0  T
   3  -1291.0681483 -0.529114E-05  0.196E-03    6.13       1.9  T
   4  -1291.0681486 -0.279022E-06  0.716E-04    6.13       5.1  T
   5  -1291.0681486 -0.146165E-07  0.925E-05    6.13      39.3  T
     SCC iter.                  ...        0 min,  2.931 sec
     gradient                   ...        0 min, 12.435 sec
 * total energy  : -1283.2881261 Eh     change        0.4088278E-02 Eh
   gradient norm :     0.0710391 Eh/a0  converged?    E=F G=F D=F
   step length   :    25.4504998 a0

........................................................................
.............................. CYCLE   26 ..............................
........................................................................
   1  -1291.0909911 -0.129109E+04  0.533E-02    6.16       0.0  T
   2  -1291.0909988 -0.769273E-05  0.321E-02    6.19       1.0  T
   3  -1291.0910023 -0.353250E-05  0.153E-03    6.22       2.4  T
   4  -1291.0910024 -0.146956E-06  0.523E-04    6.22       7.0  T
   5  -1291.0910024 -0.807609E-08  0.851E-05    6.22      42.8  T
     SCC iter.                  ...        0 min,  2.951 sec
     gradient                   ...        0 min, 12.405 sec
 * total energy  : -1283.2923361 Eh     change       -0.4210052E-02 Eh
   gradient norm :     0.0026679 Eh/a0  converged?    E=F G=F D=F
   step length   :     0.9109652 a0

........................................................................
.............................. CYCLE   27 ..............................
........................................................................
   1  -1291.0906367 -0.129109E+04  0.466E-03    6.22       0.0  T
   2  -1291.0906368 -0.589534E-07  0.282E-03    6.22       1.3  T
   3  -1291.0906368 -0.263638E-07  0.134E-04    6.21      27.1  T
   4  -1291.0906368 -0.155501E-08  0.458E-05    6.22      79.4  T
     SCC iter.                  ...        0 min,  2.398 sec
     gradient                   ...        0 min, 12.402 sec
 * total energy  : -1283.2924386 Eh     change       -0.1025151E-03 Eh
   gradient norm :     0.0028229 Eh/a0  converged?    E=F G=F D=F
   step length   :     0.0927223 a0

........................................................................
.............................. CYCLE   28 ..............................
........................................................................
   1  -1291.0720330 -0.129107E+04  0.489E-02    6.14       0.0  T
   2  -1291.0720404 -0.743898E-05  0.296E-02    6.13       1.0  T
   3  -1291.0720443 -0.383419E-05  0.156E-03    6.11       2.3  T
   4  -1291.0720444 -0.121567E-06  0.501E-04    6.11       7.3  T
   5  -1291.0720444 -0.902992E-08  0.822E-05    6.11      44.2  T
     SCC iter.                  ...        0 min,  2.929 sec
     gradient                   ...        0 min, 12.295 sec
 * total energy  : -1283.2897204 Eh     change        0.2718215E-02 Eh
   gradient norm :     0.0601832 Eh/a0  converged?    E=F G=F D=F
   step length   :     3.2587687 a0

........................................................................
.............................. CYCLE   29 ..............................
........................................................................
   1  -1291.0903998 -0.129109E+04  0.443E-02    6.15       0.0  T
   2  -1291.0904051 -0.531938E-05  0.267E-02    6.18       1.0  T
   3  -1291.0904076 -0.245691E-05  0.129E-03    6.22       2.8  T
   4  -1291.0904077 -0.990635E-07  0.420E-04    6.22       8.7  T
   5  -1291.0904077 -0.490832E-08  0.707E-05    6.22      51.4  T
     SCC iter.                  ...        0 min,  2.960 sec
     gradient                   ...        0 min, 12.320 sec
 * total energy  : -1283.2925761 Eh     change       -0.2855722E-02 Eh
   gradient norm :     0.0041825 Eh/a0  converged?    E=F G=F D=F
   step length   :     0.8777993 a0

........................................................................
.............................. CYCLE   30 ..............................
........................................................................
   1  -1291.0900569 -0.129109E+04  0.460E-03    6.22       0.0  T
   2  -1291.0900569 -0.594443E-07  0.279E-03    6.22       1.3  T
   3  -1291.0900570 -0.281823E-07  0.129E-04    6.22      28.1  T
   4  -1291.0900570 -0.125237E-08  0.418E-05    6.22      86.9  T
     SCC iter.                  ...        0 min,  2.361 sec
     gradient                   ...        0 min, 12.283 sec
 * total energy  : -1283.2926823 Eh     change       -0.1061293E-03 Eh
   gradient norm :     0.0056649 Eh/a0  converged?    E=F G=F D=F
   step length   :     0.1029939 a0

........................................................................
.............................. CYCLE   31 ..............................
........................................................................
   1  -1291.0754579 -0.129108E+04  0.427E-02    6.18       0.0  T
   2  -1291.0754655 -0.760817E-05  0.258E-02    6.19       1.0  T
   3  -1291.0754684 -0.298958E-05  0.152E-03    6.19       2.4  T
   4  -1291.0754686 -0.198686E-06  0.495E-04    6.18       7.3  T
   5  -1291.0754687 -0.746149E-08  0.788E-05    6.18      46.1  T
     SCC iter.                  ...        0 min,  2.888 sec
     gradient                   ...        0 min, 12.315 sec
 * total energy  : -1283.2907177 Eh     change        0.1964586E-02 Eh
   gradient norm :     0.0501117 Eh/a0  converged?    E=F G=F D=F
   step length   :     1.0802543 a0

........................................................................
.............................. CYCLE   32 ..............................
........................................................................
   1  -1291.0900267 -0.129109E+04  0.382E-02    6.19       0.0  T
   2  -1291.0900323 -0.564441E-05  0.230E-02    6.20       1.0  T
   3  -1291.0900342 -0.186314E-05  0.129E-03    6.22       2.8  T
   4  -1291.0900344 -0.171464E-06  0.390E-04    6.22       9.3  T
   5  -1291.0900344 -0.343789E-08  0.647E-05    6.22      56.2  T
     SCC iter.                  ...        0 min,  2.971 sec
     gradient                   ...        0 min, 12.336 sec
 * total energy  : -1283.2928120 Eh     change       -0.2094352E-02 Eh
   gradient norm :     0.0056388 Eh/a0  converged?    E=F G=F D=F
   step length   :     0.8650690 a0

........................................................................
.............................. CYCLE   33 ..............................
........................................................................
   1  -1291.0897992 -0.129109E+04  0.391E-03    6.22       0.0  T
   2  -1291.0897993 -0.684227E-07  0.237E-03    6.22       1.5  T
   3  -1291.0897993 -0.269442E-07  0.140E-04    6.22      25.9  T
   4  -1291.0897993 -0.195519E-08  0.434E-05    6.22      83.8  T
     SCC iter.                  ...        0 min,  2.360 sec
     gradient                   ...        0 min, 12.284 sec
 * total energy  : -1283.2928964 Eh     change       -0.8438181E-04 Eh
   gradient norm :     0.0060843 Eh/a0  converged?    E=F G=F D=F
   step length   :     0.0989736 a0

........................................................................
.............................. CYCLE   34 ..............................
........................................................................
   1  -1291.0863103 -0.129109E+04  0.198E-02    6.22       0.0  T
   2  -1291.0863126 -0.232534E-05  0.120E-02    6.22       1.0  T
   3  -1291.0863134 -0.778300E-06  0.824E-04    6.22       4.4  T
   4  -1291.0863135 -0.768289E-07  0.245E-04    6.22      14.8  T
     SCC iter.                  ...        0 min,  2.317 sec
     gradient                   ...        0 min, 12.284 sec
 * total energy  : -1283.2928794 Eh     change        0.1697701E-04 Eh
   gradient norm :     0.0174211 Eh/a0  converged?    E=F G=F D=F
   step length   :     0.5146903 a0

........................................................................
.............................. CYCLE   35 ..............................
........................................................................
   1  -1291.0895598 -0.129109E+04  0.120E-02    6.22       0.0  T
   2  -1291.0895607 -0.810961E-06  0.727E-03    6.22       1.0  T
   3  -1291.0895609 -0.241276E-06  0.485E-04    6.22       7.5  T
   4  -1291.0895609 -0.279931E-07  0.138E-04    6.22      26.4  T
     SCC iter.                  ...        0 min,  2.361 sec
     gradient                   ...        0 min, 12.316 sec
 * total energy  : -1283.2930385 Eh     change       -0.1591016E-03 Eh
   gradient norm :     0.0065379 Eh/a0  converged?    E=F G=F D=F
   step length   :     0.3030062 a0

........................................................................
.............................. CYCLE   36 ..............................
........................................................................
   1  -1291.0895458 -0.129109E+04  0.253E-03    6.22       0.0  T
   2  -1291.0895458 -0.468265E-07  0.154E-03    6.22       2.4  T
   3  -1291.0895459 -0.181394E-07  0.114E-04    6.22      32.0  T
   4  -1291.0895459 -0.135174E-08  0.341E-05    6.22     106.6  T
     SCC iter.                  ...        0 min,  2.361 sec
     gradient                   ...        0 min, 12.255 sec
 * total energy  : -1283.2930719 Eh     change       -0.3332423E-04 Eh
   gradient norm :     0.0067530 Eh/a0  converged?    E=F G=F D=F
   step length   :     0.0643558 a0

........................................................................
.............................. CYCLE   37 ..............................
........................................................................
   1  -1291.0896655 -0.129109E+04  0.639E-03    6.23       0.0  T
   2  -1291.0896659 -0.454961E-06  0.388E-03    6.23       1.0  T
   3  -1291.0896661 -0.151589E-06  0.369E-04    6.23       9.8  T
   4  -1291.0896661 -0.154671E-07  0.105E-04    6.23      34.5  T
     SCC iter.                  ...        0 min,  2.359 sec
     gradient                   ...        0 min, 12.226 sec
 * total energy  : -1283.2931263 Eh     change       -0.5442853E-04 Eh
   gradient norm :     0.0058471 Eh/a0  converged?    E=F G=F D=F
   step length   :     0.1661341 a0

........................................................................
.............................. CYCLE   38 ..............................
........................................................................
   1  -1291.0903409 -0.129109E+04  0.202E-03    6.23       0.0  T
   2  -1291.0903409 -0.465661E-07  0.125E-03    6.23       2.9  T
   3  -1291.0903409 -0.243806E-07  0.112E-04    6.23      32.5  T
   4  -1291.0903409 -0.679847E-09  0.336E-05    6.23     108.4  T
     SCC iter.                  ...        0 min,  2.362 sec
     gradient                   ...        0 min, 12.226 sec
 * total energy  : -1283.2931512 Eh     change       -0.2491958E-04 Eh
   gradient norm :     0.0046771 Eh/a0  converged?    E=F G=F D=F
   step length   :     0.0282253 a0

........................................................................
.............................. CYCLE   39 ..............................
........................................................................
   1  -1291.0913990 -0.129109E+04  0.306E-03    6.23       0.0  T
   2  -1291.0913991 -0.113438E-06  0.187E-03    6.23       1.9  T
   3  -1291.0913992 -0.561547E-07  0.187E-04    6.23      19.4  T
   4  -1291.0913992 -0.237196E-08  0.579E-05    6.23      62.8  T
     SCC iter.                  ...        0 min,  2.359 sec
     gradient                   ...        0 min, 12.222 sec
 * total energy  : -1283.2931760 Eh     change       -0.2474013E-04 Eh
   gradient norm :     0.0027830 Eh/a0  converged?    E=F G=F D=F
   step length   :     0.0358567 a0

........................................................................
.............................. CYCLE   40 ..............................
........................................................................
   1  -1291.0914549 -0.129109E+04  0.124E-03    6.23       0.0  T
   2  -1291.0914549 -0.316256E-07  0.751E-04    6.23       4.8  T
   3  -1291.0914549 -0.900877E-08  0.102E-04    6.23      35.8  T
     SCC iter.                  ...        0 min,  1.779 sec
     gradient                   ...        0 min, 12.245 sec
 * total energy  : -1283.2931845 Eh     change       -0.8516941E-05 Eh
   gradient norm :     0.0025182 Eh/a0  converged?    E=F G=F D=F
   step length   :     0.0198877 a0

........................................................................
.............................. CYCLE   41 ..............................
........................................................................
   1  -1291.0909442 -0.129109E+04  0.466E-03    6.23       0.0  T
   2  -1291.0909444 -0.162183E-06  0.282E-03    6.23       1.3  T
   3  -1291.0909444 -0.487253E-07  0.212E-04    6.24      17.2  T
   4  -1291.0909444 -0.587897E-08  0.604E-05    6.24      60.2  T
     SCC iter.                  ...        0 min,  2.361 sec
     gradient                   ...        0 min, 12.239 sec
 * total energy  : -1283.2932041 Eh     change       -0.1966380E-04 Eh
   gradient norm :     0.0022413 Eh/a0  converged?    E=F G=F D=F
   step length   :     0.0733456 a0

........................................................................
.............................. CYCLE   42 ..............................
........................................................................
   1  -1291.0898071 -0.129109E+04  0.741E-03    6.23       0.0  T
   2  -1291.0898075 -0.393619E-06  0.450E-03    6.23       1.0  T
   3  -1291.0898077 -0.176334E-06  0.351E-04    6.23      10.4  T
   4  -1291.0898077 -0.862428E-08  0.111E-04    6.23      32.8  T
     SCC iter.                  ...        0 min,  2.362 sec
     gradient                   ...        0 min, 12.223 sec
 * total energy  : -1283.2931592 Eh     change        0.4494031E-04 Eh
   gradient norm :     0.0083091 Eh/a0  converged?    E=F G=F D=F
   step length   :     0.1236038 a0
 * RMSD in coord.:     0.0498993 a0     energy gain  -0.1263774E-02 Eh
 * calculating model hessian...
Using Lindh-Hessian (1995)
 Shifting diagonal of input Hessian by   1.000005786953849E-002
 Lowest  eigenvalues of input Hessian
    0.010000   -0.000000   -0.000000   -0.000000   -0.000000   -0.000000
   -0.000000   -0.000000   -0.000000   -0.000000   -0.000000   -0.000000
   -0.000000   -0.000000   -0.000000   -0.000000   -0.000000   -0.000000
 Highest eigenvalues
    0.313006    0.315057    1.212521    1.236200    1.421206    1.445405
 

........................................................................
.............................. CYCLE   43 ..............................
........................................................................
   1  -1291.0906937 -0.129109E+04  0.387E-03    6.23       0.0  T
   2  -1291.0906939 -0.242934E-06  0.238E-03    6.23       1.5  T
   3  -1291.0906940 -0.106678E-06  0.272E-04    6.24      13.4  T
   4  -1291.0906940 -0.597811E-08  0.853E-05    6.24      42.6  T
     SCC iter.                  ...        0 min,  2.333 sec
     gradient                   ...        0 min, 12.239 sec
 * total energy  : -1283.2932330 Eh     change       -0.7376037E-04 Eh
   gradient norm :     0.0025822 Eh/a0  converged?    E=F G=F D=F
   step length   :     0.0473967 a0

........................................................................
.............................. CYCLE   44 ..............................
........................................................................
   1  -1291.0911237 -0.129109E+04  0.235E-03    6.24       0.0  T
   2  -1291.0911237 -0.562691E-07  0.144E-03    6.25       2.5  T
   3  -1291.0911238 -0.279372E-07  0.127E-04    6.25      28.6  T
   4  -1291.0911238 -0.105729E-08  0.395E-05    6.25      92.0  T
     SCC iter.                  ...        0 min,  2.303 sec
     gradient                   ...        0 min, 12.233 sec
 * total energy  : -1283.2932510 Eh     change       -0.1801874E-04 Eh
   gradient norm :     0.0015695 Eh/a0  converged?    E=F G=F D=F
   step length   :     0.0369728 a0

........................................................................
.............................. CYCLE   45 ..............................
........................................................................
   1  -1291.0909995 -0.129109E+04  0.316E-03    6.25       0.0  T
   2  -1291.0909995 -0.489617E-07  0.193E-03    6.25       1.9  T
   3  -1291.0909996 -0.230918E-07  0.111E-04    6.25      32.7  T
   4  -1291.0909996 -0.888804E-09  0.343E-05    6.25     106.1  T
     SCC iter.                  ...        0 min,  2.325 sec
     gradient                   ...        0 min, 12.246 sec
 * total energy  : -1283.2932609 Eh     change       -0.9934604E-05 Eh
   gradient norm :     0.0015379 Eh/a0  converged?    E=F G=F D=F
   step length   :     0.0443479 a0

........................................................................
.............................. CYCLE   46 ..............................
........................................................................
   1  -1291.0906876 -0.129109E+04  0.361E-03    6.26       0.0  T
   2  -1291.0906876 -0.661769E-07  0.220E-03    6.26       1.7  T
   3  -1291.0906877 -0.241057E-07  0.130E-04    6.26      28.0  T
   4  -1291.0906877 -0.175692E-08  0.374E-05    6.26      97.1  T
     SCC iter.                  ...        0 min,  2.320 sec
     gradient                   ...        0 min, 12.252 sec
 * total energy  : -1283.2932682 Eh     change       -0.7281442E-05 Eh
   gradient norm :     0.0012727 Eh/a0  converged?    E=F G=F D=F
   step length   :     0.0548608 a0

........................................................................
.............................. CYCLE   47 ..............................
........................................................................
   1  -1291.0906311 -0.129109E+04  0.283E-03    6.26       0.0  T
   2  -1291.0906312 -0.469076E-07  0.173E-03    6.26       2.1  T
   3  -1291.0906312 -0.153384E-07  0.107E-04    6.26      33.9  T
   4  -1291.0906312 -0.147793E-08  0.296E-05    6.26     122.9  T
     SCC iter.                  ...        0 min,  2.344 sec
     gradient                   ...        0 min, 12.244 sec
 * total energy  : -1283.2932727 Eh     change       -0.4478354E-05 Eh
   gradient norm :     0.0011725 Eh/a0  converged?    E=F G=F D=F
   step length   :     0.0427640 a0

........................................................................
.............................. CYCLE   48 ..............................
........................................................................
   1  -1291.0907516 -0.129109E+04  0.317E-03    6.26       0.0  T
   2  -1291.0907517 -0.991379E-07  0.192E-03    6.26       1.9  T
   3  -1291.0907517 -0.236250E-07  0.166E-04    6.26      21.9  T
   4  -1291.0907517 -0.383898E-08  0.393E-05    6.26      92.6  T
     SCC iter.                  ...        0 min,  2.307 sec
     gradient                   ...        0 min, 12.236 sec
 * total energy  : -1283.2932765 Eh     change       -0.3817867E-05 Eh
   gradient norm :     0.0006191 Eh/a0  converged?    E=F G=T D=F
   step length   :     0.0516844 a0

........................................................................
.............................. CYCLE   49 ..............................
........................................................................
   1  -1291.0908145 -0.129109E+04  0.117E-03    6.26       0.0  T
   2  -1291.0908145 -0.163425E-07  0.715E-04    6.26       5.1  T
   3  -1291.0908145 -0.473096E-08  0.668E-05    6.26      54.5  T
     SCC iter.                  ...        0 min,  1.740 sec
     gradient                   ...        0 min, 12.248 sec
 * total energy  : -1283.2932773 Eh     change       -0.7807585E-06 Eh
   gradient norm :     0.0004157 Eh/a0  converged?    E=T G=T D=F
   step length   :     0.0156974 a0

   *** GEOMETRY OPTIMIZATION CONVERGED AFTER 49 CYCLES ***

------------------------------------------------------------------------
 total energy gain   :        -0.0046932 Eh       -2.9450 kcal/mol
 total RMSD          :         0.0987345 a0        0.0522 Å
 total power (kW/mol):        -0.2514677 (step)   -0.0152 (real)
------------------------------------------------------------------------

 L-ANCopt (total)              0 d,  0 h, 13 min, 29.800 sec
 setup                          ...        0 min,  0.029 sec (  0.004%)
 model hessian                  ...        0 min, 22.769 sec (  2.812%)
 ANC generation                 ...        0 min,  7.445 sec (  0.919%)
 coordinate transformation      ...        0 min,  0.003 sec (  0.000%)
 Rational function              ...        0 min,  0.000 sec (  0.000%)
 singlepoint calculation        ...       12 min, 59.216 sec ( 96.223%)
 optimization log               ...        0 min,  0.327 sec (  0.040%)
 hessian update                 ...        0 min,  0.001 sec (  0.000%)

================
 final structure:
================
$coord
        9.59770636516000      -12.60082828597000        0.30101854905900      o
        7.96490640206300      -13.22306625893200       -0.33999791771100      h
        9.41201980958100      -12.51860225116200        2.13238797940800      h
        1.76984209487800        5.97467925700400        8.74840604526400      o
       -0.01147736185800        5.97932812362300        8.25184483588700      h
        2.45499873161600        7.57243124411700        8.19597421930000      h
        0.20450696237400        0.74500834370700       -6.54775483152800      o
       -0.03677159823500       -0.65742038102700       -7.72023960118800      h
        1.83268027276900        0.38553602908000       -5.78562711443800      h
      -11.22392922836500        3.13799346536500        0.88799846671400      o
       -9.77288018423200        3.25522319458700       -0.24667880286500      h
      -12.61351390042700        3.69497208591300       -0.18108029169700      h
       -4.69353840091300        5.83238536421600        2.12410980660800      o
       -3.63284063737000        6.78954717782100        0.96417077219100      h
       -3.82035757243200        5.72930661892000        3.74187369786100      h
       -6.51363931133400       -9.48850883123700        0.55254487050300      o
       -6.56182601459500       -7.90319133327800       -0.36415404603700      h
       -5.41678659396700       -9.27030355008100        2.03061244109400      h
       -3.15761414540000       -3.72315072476800       -5.36844601599100      o
       -3.57453776755300       -5.44148708128500       -4.89688185108300      h
       -1.50954655270000       -3.40921631383000       -4.67614574122100      h
       -0.94030366176400      -11.14984808455300       -0.11397287120800      o
       -1.73704898014700      -10.96539532216500        1.52564214494000      h
        0.72976008927500      -10.39037007599300        0.06113978499400      h
       -3.04388518414400       -5.09859948932800        0.45115858417700      o
       -1.72110163993100       -5.80003875657800        1.52629376345500      h
       -3.19183705531900       -6.14897865358000       -1.03154958208100      h
        1.22331571050500        9.24905179617900       -9.31211076473700      o
        0.52409891044800        8.65027621481700      -10.89001879049000      h
        2.93651519417100        9.82023196008100       -9.71031482418600      h
       -6.26689486354700        2.10744305811600       -7.36742351154700      o
       -7.32373909264400        3.55714513696200       -7.79318685614000      h
       -4.96370926483100        2.79423653862200       -6.27386323214300      h
       -3.54507629806300        5.30047549114300       -4.75267135439600      o
       -4.43827360476500        6.58016407243200       -3.80773085279600      h
       -1.71761499917800        5.54012687393300       -4.57777307721000      h
       -8.09399290513700       -5.52359048648500       -2.21131934391900      o
       -7.99175784273100       -4.15345018208100       -3.43762728598700      h
       -8.70948722910000       -7.03606219341300       -3.09789877592200      h
       -8.79362865554700        4.45512038518100       -3.19727549914000      o
       -9.82871752009900        3.83489516707500       -4.57151661033200      h
       -9.41325614067400        6.13443184028700       -2.80812737040100      h
       -2.08093500899900        8.89623214081400       -1.12007118030700      o
       -1.83724812967200        9.63808599957600       -2.78492938698800      h
       -1.15330446247800        9.99243889561700        0.00711231147800      h
        0.54591736576100        3.80967377358600      -10.41807087061900      o
        0.56793641491700        2.86462322228300       -8.80800770936400      h
       -0.14331206805800        2.60355099763700      -11.63286041240700      h
       -2.57832962040000        0.21166825498100        5.08001297221300      o
       -2.07678359591600       -1.20566093089500        6.14598827621600      h
       -4.26282053087500        0.75287564643300        5.59376541255800      h
       -4.04028256051700       -0.78956650178100       15.02160862278900      o
       -5.70019722124900        0.01127213743100       15.34462209714000      h
       -4.35972624201600       -2.58591155787800       15.05703825047200      h
       -3.39866917769700      -10.04684116528400        4.30890770646500      o
       -3.31300720669700       -8.88166618478700        5.75217471759800      h
       -4.43654839873500      -11.44062596227200        4.92560688170900      h
       -2.65182620413400        1.17752020334400       10.54983254836000      o
       -0.83837086858200        1.00306514474900       10.50418639361000      h
       -3.17319468867600        0.67913401626500       12.25241542370900      h
       -6.56187900553400       -5.16007021862600        4.18502081400900      o
       -6.04668453837200       -4.01873540276500        5.51310488587500      h
       -5.38756642131600       -4.92923979008500        2.79552674523500      h
        7.08221165267000        0.41180618078700        6.98167827865500      o
        8.36656549640900       -0.24562148607800        8.12695762153500      h
        6.45209392293200       -0.96610760711800        5.97384788076500      h
        1.35753825967500       -4.96425327819300       -2.52953187916700      o
        1.96487514807400       -5.88092083208600       -1.07436598258200      h
        1.41043375541100       -6.23698814892400       -3.89641056968300      h
       -0.79108989188200       11.48866204681600       -5.29929634429100      o
       -0.56170564075300       10.74323954566800       -6.96235252758200      h
        0.94091511490900       11.51883201141300       -4.65605155860200      h
        1.11008205832600       -0.28536142123700       14.77249114181500      o
        1.50066055767400        1.45715063001800       14.37559841460300      h
       -0.60451719542900       -0.28127257452400       15.41945379795800      h
       -6.95446699977200        1.93384365363700        7.10992320286000      o
       -8.12263641279700        3.15411824499000        6.35713023080400      h
       -7.95332630695400        0.39463486582900        7.30857635209000      h
      -13.40222369891700       -0.54493052082400       -1.91232091473500      o
      -12.21798560089300       -1.12642548529000       -0.62141726006900      h
      -14.67919758343400        0.44058770590400       -1.05064830091100      h
        5.62532865792500        5.83651364421800        4.51728749001800      o
        4.09691571327200        4.82538595914000        4.55459041021500      h
        6.82905494843100        4.85174195127000        3.52979947929000      h
       -4.67344425117600       -1.86941626157600       -9.82736661624500      o
       -3.95892597161100       -2.66830452502800       -8.32290376139700      h
       -5.32445112909800       -0.27034032358100       -9.16161164351600      h
        4.27125471850400       -1.19738983398500       -4.13326397434400      o
        6.03039519801000       -1.73254713628500       -4.33266251992800      h
        3.32392596537500       -2.69580723669000       -3.60062962588400      h
       -6.87346326352000       -7.94419458368300       -8.02642013793300      o
       -7.05768751363200       -8.88114961969500       -9.59782965163700      h
       -7.89896904961500       -6.40196371703500       -8.30172709443300      h
       -8.92273109033400       -1.37791199928000       -4.86917034416800      o
       -7.93712501534900       -0.01262980253500       -5.63729328883100      h
      -10.36290807469700       -0.63746477276800       -4.02791984013100      h
        2.68597630820300        0.95050018683700        9.37253878520800      o
        4.41524546651900        0.70777876131700        8.76950901291600      h
        2.28168748445500        2.64161139331600        8.79314408483800      h
        6.80742873607200       -8.39190104257300        3.78776744185900      o
        6.40723118827900       -8.97095871806700        5.47170636130500      h
        7.97145027887300       -6.99281051419300        4.00727495149700      h
        1.71139458316900        2.60526827626700        4.50246952694100      o
        2.73294473727000        1.13499394550700        4.14091180826600      h
        0.04126497026700        1.96140275736700        4.95266771289500      h
        7.37541667587900        5.67993516501400        9.12078269406400      o
        8.93273456856400        4.88093090111200        8.45569797953900      h
        6.34284294434700        5.78664199440500        7.57583207883900      h
       -6.56072369379600        9.53173908020900       -4.24437559958600      o
       -6.36829624632800       10.13082860703400       -2.53392298093100      h
       -6.12523145817000       10.95953603297300       -5.32202318028600      h
      -11.11091241335700        8.62554784119000       -1.16891307498700      o
      -11.22804887534300       10.37777916137200       -1.69608427410500      h
      -10.06577446922000        8.67024142552900        0.35772654951200      h
        1.71442044580700       -8.30396650547700        8.90056243705600      o
        1.95501615696800       -9.47603976539000        7.48861877020200      h
       -0.09638873125400       -7.91004256947900        8.94255169203600      h
       -8.55834217158200       -8.67638607278800        7.24477800690100      o
       -8.02806117103400       -7.50159906701200        5.91907169537100      h
      -10.38310504839200       -8.93206639397200        7.09046136978800      h
        0.72860071387000       -6.10444589077800        3.59657401718300      o
        1.19660122224500       -7.85307466537800        3.88520841938700      h
        0.25613245153400       -5.35505563447700        5.21490403385800      h
        0.46351810015400        7.59747566382600        3.25436113033300      o
        0.52683506694900        5.93813130537800        4.00735333978600      h
        1.52581497077200        7.46246593721700        1.72840881427900      h
        1.73088741417200       -3.43216108889500      -14.34873138558500      o
        2.84243734226200       -2.13640189168400      -14.99735179871500      h
        1.57213669990300       -3.09882019193300      -12.51532494234500      h
        5.04028742712800       -4.61934150949700        8.13885903581700      o
        4.29363273395400       -3.83212880973000        6.65780668239600      h
        3.89484064980400       -6.00376441969600        8.58847312089700      h
      -10.51751347214000        5.07391576463400        5.39018862450700      o
      -10.93568939678200        4.22881826611400        3.78947876993100      h
       -9.83420235159000        6.68505185162300        4.78975564785200      h
      -14.75389696979800        6.92211391018600        1.88203885839700      o
      -14.14854848638100        7.78330697392400        3.37466832286000      h
      -13.60332426529400        7.45849665441000        0.52123015546800      h
      -12.00244748536600       -5.72592076367800        4.40256059925900      o
      -13.74876818686400       -5.33486993148600        4.04604657199400      h
      -11.00667836029100       -4.48665047549500        3.45421754631000      h
        2.98427838641400      -13.74267453008100        9.82713237998900      o
        2.65124107317100      -12.99231914292800       11.45900578456500      h
        1.34861207528100      -14.01656259889200        9.04613880743900      h
       11.89458629136900       -8.60589801969200        8.85575470060800      o
       12.01140504771500       -7.51659518797200       10.36155117228600      h
       10.24369840438700       -9.38584525457500        8.97732467075400      h
        1.31584510906600        6.08412307531900       -5.16430962944300      o
        1.43540754736900        7.39694881257700       -6.44226875981000      h
        2.01121734048100        6.70380934717400       -3.55542015788800      h
        6.13637223961600       -7.91754900768000       -3.97106155978800      o
        6.34960304341100       -9.25329063951100       -5.21990107152400      h
        7.77728067226500       -7.71774320026500       -3.09862429708300      h
      -16.04335520691100        9.42451027638600       -3.51787819624000      o
      -14.82876207057700        9.65302387086700       -4.89848852499800      h
      -17.69292609077700        9.34175102970200       -4.32676536346300      h
       12.01179475323600       -0.48205685558000        5.09734101215900      o
       11.29334161732500       -2.08643409903900        5.64710595406200      h
       13.77430674761000       -0.48988678387300        5.58849932459300      h
       -0.43996028438600        7.97807569282200      -14.26818579184600      o
       -1.52923074699000        6.57683871676600      -14.64611804804300      h
        1.29288769645900        7.32102079972200      -14.33523012118900      h
      -13.59278055202100       -5.72028008497600       -2.02145540059700      o
      -14.43374482399300       -5.02484688627800       -0.55401772328600      h
      -11.80635527743600       -5.43360300308400       -1.80905122642600      h
       -2.99749143529000        5.56797045851900        7.03150795255300      o
       -4.29821059941200        6.73206061802400        7.59316419511300      h
       -3.32863544665500        3.98340323051700        7.88606054651700      h
        3.59733738955400       -9.04890131276600        0.01066868500700      o
        4.51421129320600       -8.57086550695700       -1.54748021353000      h
        4.74770531655100       -8.79071022477400        1.43388892580200      h
       -6.60992579178500      -13.24203869777000        6.61858907863900      o
       -7.43788549133800      -11.62207215121100        7.03674863655300      h
       -7.81394779057600      -14.12601516191400        5.55595335351300      h
        5.06686521696000        3.36971414682500       -6.77361822161400      o
        3.49262868344000        4.16139779570300       -6.15781658833900      h
        5.87334749134900        2.56308491203900       -5.35501529260700      h
        4.61048837397100        1.18725146900700      -15.30240328581000      o
        4.57938636214300        0.81566727791700      -13.45436594932300      h
        6.37880737940300        1.29259425981400      -15.69552331179200      h
       -3.23004181566700       -7.59398967975300        8.63352038540000      o
       -4.31366699865400       -8.56466024409300        9.76685689857500      h
       -3.85102363846900       -5.84662346866500        8.64454945361800      h
       -3.07843400205800      -12.23610445127600      -10.94788169242200      o
       -4.46539688837000      -11.76812481568100      -12.04739748359600      h
       -3.85343460809300      -12.75635577707900       -9.36863320468500      h
        3.95525105122600        1.63663103172600       -0.17191579623100      o
        5.59343566312700        1.70583721398000        0.68813535336000      h
        4.22729147847400        0.69438440627600       -1.75075859249900      h
       -3.46160210852600       -8.51222762916900       -3.64096318594600      o
       -4.39414079282200       -9.62351952179500       -4.74399252284600      h
       -2.52672886378400       -9.58296034659500       -2.45834739780800      h
        6.84047121885000      -10.23965980548700        8.75035706900900      o
        6.73475718476600       -9.14330835928200       10.25680327986900      h
        5.56476052731400      -11.52696292939700        9.04779417070900      h
       -7.71486423623000       -2.65045276567600      -14.32508677073500      o
       -8.01351898057800       -2.57162608895900      -16.10356474104700      h
       -6.06269614703400       -3.43664121961700      -14.08676131000000      h
       -9.80280238175800       -9.68354991671400       -4.32346415263600      o
      -11.35300135799500       -9.02644017469700       -5.10498254479000      h
       -8.56644722904400       -9.59248603237400       -5.69004734784000      h
       -3.38306960204600        6.63373975367000       -9.46722826638500      o
       -1.76990108494100        5.75152194748500       -9.81341519342700      h
       -3.68929010536100        6.25991909610800       -7.66330182328700      h
      -19.27596849305300        8.72915106612900        1.23127110261700      o
      -17.50975896715600        8.08467319892000        1.27265786080800      h
      -19.13102043935100       10.52504515273400        1.04863290006100      h
        6.70436847796500       -7.68120128858100       13.09036988985500      o
        6.18451640722400       -5.89378978907700       13.12069801638900      h
        5.26962274796200       -8.62222854852100       13.74523381031200      h
       -2.52243274172400        6.58250378994000       12.49907836383600      o
       -1.19524114641700        5.68005117377900       13.36136162445800      h
       -1.78920916008400        8.19042962938400       11.99002072821500      h
        8.19131443611200       -3.33458665419600        0.98085184820700      o
        8.43533808047600       -2.81594727936700       -0.78708978651100      h
        9.73779143854400       -2.92842078266900        1.86095798976700      h
        7.32736176097200       10.57443945531600        4.68065261685700      o
        7.07140217476500        8.75975941577700        4.76277319116100      h
        6.24111076787400       11.08169592434900        3.26435990503400      h
       -9.31751183677100        1.43582209447200      -11.59148965792700      o
       -8.88269433251900       -0.14975804478100      -12.41358825264000      h
       -8.06979240491200        2.63754594122200      -12.22555452420600      h
        9.77836019087400      -13.22080885788600        5.43050560505900      o
       11.53616366565000      -13.21593818468300        5.95952713255300      h
        8.92447762626800      -11.97071517736800        6.45833710277000      h
       -8.29361030763100        8.66785708856800      -12.63204298782600      o
       -6.94037189183100        9.89599823526100      -12.49582183746900      h
       -7.58478999286600        7.22166618006200      -13.49402831104300      h
        9.06997559967000        3.13364858403000       -3.32268975371300      o
        9.59529707096600        3.01969809511500       -5.07235126921400      h
       10.42730871088500        2.41304662656900       -2.33111776288300      h
      -15.19601231787600      -13.97194601313700        5.27180274280900      o
      -13.68954695445500      -14.63479302606500        4.46744973243900      h
      -16.22655733033600      -13.19031900066900        3.97768185749300      h
      -16.13053288986800       -3.58181440298500        1.92188285566200      o
      -17.76456880705700       -3.40546485387500        2.74511352849900      h
      -15.10991906001400       -2.16692205368000        2.57011969486400      h
      -14.46638443061600      -10.52477769887500       -1.62815965599100      o
      -13.09210236377100      -10.67430468308500       -0.38601975489300      h
      -14.40454826063400       -8.71118871547900       -2.06728417109200      h
      -15.17340905087300       12.58719688540700        0.50434142956200      o
      -13.66718662192700       13.46138353942100       -0.05847847543600      h
      -15.54865991482700       11.42699140926800       -0.88408449448500      h
      -10.55744105292800       13.75987648618900       -1.53386040794700      o
       -8.79718059634700       13.50639820974200       -1.12331227196000      h
      -10.63624201538800       14.04307347881900       -3.37472637656400      h
       -5.51813826637200       12.89104680877600       -0.14992669828600      o
       -4.72122793182800       11.93450070983800        1.23396645275300      h
       -4.17150096264500       13.59970885332400       -1.17239103358300      h
        0.07985589403400       10.84331964302500       11.08401032009600      o
        1.58428206760100       10.51450879654200       12.07872816171300      h
        0.75092142300300       10.92227708707700        9.35134502737300      h
        2.28327942436500       10.80731126881800        6.60481699383700      o
        2.82515690243400       12.44834912501700        5.98773955441700      h
        1.72380228186700        9.81643728341600        5.14341199015200      h
        0.22416852757400       14.52696565967300      -10.19442552501200      o
       -1.16054377903500       13.40770593581400      -10.63653688028800      h
        1.68640773622800       13.90880339680500      -11.06798250552200      h
        4.12508643568700        5.97160819816800      -13.32945446843300      o
        3.22029780644800        5.25025862392500      -11.88610817668200      h
        4.44795681507600        4.50515431634400      -14.39374256463700      h
        8.25220326644400        2.23555575611800        2.29932991791800      o
        8.29541374774900        1.47812656972400        3.96766089627500      h
        9.86686720268400        1.83506717938000        1.48425982817200      h
       11.06391441064600        7.52447189926500      -10.84446884036600      o
        9.92690675427000        7.27861791850200       -9.42665322429000      h
       12.19740927095000        8.83664421728900      -10.27633757013700      h
[...]
   382   8 o      384   1 h                                       0.9619410
   385   8 o      386   1 h                                       0.9645559
   385   8 o      387   1 h                                       0.9779713
   388   8 o      389   1 h                                       0.9704130
   388   8 o      390   1 h                                       0.9652598
   391   8 o      392   1 h                                       0.9620718
   391   8 o      393   1 h                                       0.9768787
   394   8 o      395   1 h                                       0.9762144
   394   8 o      396   1 h                                       0.9651188
   397   8 o      398   1 h                                       0.9828264
   397   8 o      399   1 h                                       0.9617789
   400   8 o      401   1 h                                       0.9817641
   400   8 o      402   1 h                                       0.9653346
   403   8 o      404   1 h                                       0.9755331
   403   8 o      405   1 h                                       0.9733300
   406   8 o      407   1 h                                       0.9751391
   406   8 o      408   1 h                                       0.9647123
   409   8 o      410   1 h                                       0.9644988
   409   8 o      411   1 h                                       0.9765358
   412   8 o      413   1 h                                       0.9816192
   412   8 o      414   1 h                                       0.9728139
   415   8 o      416   1 h                                       0.9883656
   415   8 o      417   1 h                                       0.9727773
   418   8 o      419   1 h                                       0.9683927
   418   8 o      420   1 h                                       0.9661686
   421   8 o      422   1 h                                       0.9773158
   421   8 o      423   1 h                                       0.9675226
   424   8 o      425   1 h                                       0.9569109
   424   8 o      426   1 h                                       0.9820464
   427   8 o      428   1 h                                       0.9829841
   427   8 o      429   1 h                                       0.9650854
   430   8 o      431   1 h                                       0.9626142
   430   8 o      432   1 h                                       0.9629396
   433   8 o      434   1 h                                       0.9803558
   433   8 o      435   1 h                                       0.9719088
   436   8 o      437   1 h                                       0.9606882
   436   8 o      438   1 h                                       0.9858442
   439   8 o      440   1 h                                       0.9691628
   439   8 o      441   1 h                                       0.9699276
   442   8 o      443   1 h                                       0.9785409
   442   8 o      444   1 h                                       0.9786327
   445   8 o      446   1 h                                       0.9733865
   445   8 o      447   1 h                                       0.9631167
   448   8 o      449   1 h                                       0.9845969
   448   8 o      450   1 h                                       0.9576310
   451   8 o      452   1 h                                       0.9701232
   451   8 o      453   1 h                                       0.9728890
   454   8 o      455   1 h                                       0.9781467
   454   8 o      456   1 h                                       0.9833157
   457   8 o      458   1 h                                       0.9797744
   457   8 o      459   1 h                                       0.9770068
   460   8 o      461   1 h                                       0.9644590
   460   8 o      462   1 h                                       0.9818739
   463   8 o      464   1 h                                       0.9667565
   463   8 o      465   1 h                                       0.9646500
   466   8 o      467   1 h                                       0.9690902
   466   8 o      468   1 h                                       0.9749035
   469   8 o      470   1 h                                       0.9815996
   469   8 o      471   1 h                                       0.9761310
   472   8 o      473   1 h                                       0.9842542
   472   8 o      474   1 h                                       0.9670492
   475   8 o      476   1 h                                       0.9753463
   475   8 o      477   1 h                                       0.9818356
   478   8 o      479   1 h                                       0.9812020
   478   8 o      480   1 h                                       0.9641320
   481   8 o      482   1 h                                       0.9701605
   481   8 o      483   1 h                                       0.9852935
   484   8 o      485   1 h                                       0.9566364
   484   8 o      486   1 h                                       0.9887611
   487   8 o      488   1 h                                       0.9561767
   487   8 o      489   1 h                                       0.9867246
   490   8 o      491   1 h                                       0.9910781
   490   8 o      492   1 h                                       0.9567006
   493   8 o      494   1 h                                       0.9812614
   493   8 o      495   1 h                                       0.9820418
   496   8 o      497   1 h                                       0.9672417
   496   8 o      498   1 h                                       0.9643274
   499   8 o      500   1 h                                       0.9707232
   499   8 o      501   1 h                                       0.9643140
   502   8 o      503   1 h                                       0.9649059
   502   8 o      504   1 h                                       0.9687145
   505   8 o      506   1 h                                       0.9643055
   505   8 o      507   1 h                                       0.9786649
   508   8 o      509   1 h                                       0.9685050
   508   8 o      510   1 h                                       0.9818887
   511   8 o      512   1 h                                       0.9629526
   511   8 o      513   1 h                                       0.9876297
   514   8 o      515   1 h                                       0.9834391
   514   8 o      516   1 h                                       0.9780584
   517   8 o      518   1 h                                       0.9760436
   517   8 o      519   1 h                                       0.9654775
   520   8 o      521   1 h                                       0.9792045
   520   8 o      522   1 h                                       0.9682426
   523   8 o      524   1 h                                       0.9655033
   523   8 o      525   1 h                                       0.9724821
   526   8 o      527   1 h                                       0.9777544
   526   8 o      528   1 h                                       0.9787540
   529   8 o      530   1 h                                       0.9687689
   529   8 o      531   1 h                                       0.9714044
   532   8 o      533   1 h                                       0.9793946
   532   8 o      534   1 h                                       0.9763418
   535   8 o      536   1 h                                       0.9669535
   535   8 o      537   1 h                                       0.9837159
   538   8 o      539   1 h                                       0.9682891
   538   8 o      540   1 h                                       0.9666031
   541   8 o      542   1 h                                       0.9713536
   541   8 o      543   1 h                                       0.9790167
   544   8 o      545   1 h                                       0.9755509
   544   8 o      546   1 h                                       0.9610506
   547   8 o      548   1 h                                       0.9791836
   547   8 o      549   1 h                                       0.9730611
   550   8 o      551   1 h                                       0.9590858
   550   8 o      552   1 h                                       0.9884696
   553   8 o      554   1 h                                       0.9883523
   553   8 o      555   1 h                                       0.9571652
   556   8 o      557   1 h                                       0.9737511
   556   8 o      558   1 h                                       0.9616339
   559   8 o      560   1 h                                       0.9661428
   559   8 o      561   1 h                                       0.9675623
   562   8 o      563   1 h                                       0.9824813
   562   8 o      564   1 h                                       0.9658213
   565   8 o      566   1 h                                       0.9750943
   565   8 o      567   1 h                                       0.9705930
   568   8 o      569   1 h                                       0.9686589
   568   8 o      570   1 h                                       0.9872119
   571   8 o      572   1 h                                       0.9861235
   571   8 o      573   1 h                                       0.9738779
   574   8 o      575   1 h                                       0.9753146
   574   8 o      576   1 h                                       0.9692623
   577   8 o      578   1 h                                       0.9563257
   577   8 o      579   1 h                                       0.9757537
   580   8 o      581   1 h                                       0.9604333
   580   8 o      582   1 h                                       0.9655876
   583   8 o      584   1 h                                       0.9746701
   583   8 o      585   1 h                                       0.9743862
   586   8 o      587   1 h                                       0.9738485
   586   8 o      588   1 h                                       0.9629331
   589   8 o      590   1 h                                       0.9782285
   589   8 o      591   1 h                                       0.9812391
   592   8 o      593   1 h                                       0.9641455
   592   8 o      594   1 h                                       0.9709439
   595   8 o      596   1 h                                       0.9562184
   595   8 o      597   1 h                                       0.9929906
   598   8 o      599   1 h                                       0.9831850
   598   8 o      600   1 h                                       0.9688013
   601   8 o      602   1 h                                       0.9630573
   601   8 o      603   1 h                                       0.9887172
   604   8 o      605   1 h                                       0.9598643
   604   8 o      606   1 h                                       0.9735961
   607   8 o      608   1 h                                       0.9726315
   607   8 o      609   1 h                                       0.9705989
   610   8 o      611   1 h                                       0.9672783
   610   8 o      612   1 h                                       0.9719262
   613   8 o      614   1 h                                       0.9618124
   613   8 o      615   1 h                                       0.9749026
   616   8 o      617   1 h                                       0.9827583
   616   8 o      618   1 h                                       0.9589612
   619   8 o      620   1 h                                       0.9838199
   619   8 o      621   1 h                                       0.9776282
   622   8 o      623   1 h                                       0.9929995
   622   8 o      624   1 h                                       0.9723753
   625   8 o      626   1 h                                       0.9649455
   625   8 o      627   1 h                                       0.9819122
   628   8 o      629   1 h                                       0.9677603
   628   8 o      630   1 h                                       0.9667803
   631   8 o      632   1 h                                       0.9783852
   631   8 o      633   1 h                                       0.9738276
   634   8 o      635   1 h                                       0.9686309
   634   8 o      636   1 h                                       0.9665222
   637   8 o      638   1 h                                       0.9793196
   637   8 o      639   1 h                                       0.9675915
   640   8 o      641   1 h                                       0.9658515
   640   8 o      642   1 h                                       0.9684279
   643   8 o      644   1 h                                       0.9767702
   643   8 o      645   1 h                                       0.9707143
   646   8 o      647   1 h                                       0.9825695
   646   8 o      648   1 h                                       0.9619391
   649   8 o      650   1 h                                       0.9782948
   649   8 o      651   1 h                                       0.9689136
   652   8 o      653   1 h                                       0.9753367
   652   8 o      654   1 h                                       0.9678671
   655   8 o      656   1 h                                       0.9653465
   655   8 o      657   1 h                                       0.9907927
   658   8 o      659   1 h                                       0.9640884
   658   8 o      660   1 h                                       0.9791807
   661   8 o      662   1 h                                       0.9737496
   661   8 o      663   1 h                                       0.9733206
   664   8 o      665   1 h                                       0.9566399
   664   8 o      666   1 h                                       0.9879590
   667   8 o      668   1 h                                       0.9873273
   667   8 o      669   1 h                                       0.9636748
   670   8 o      671   1 h                                       0.9830708
   670   8 o      672   1 h                                       0.9648840
   673   8 o      674   1 h                                       0.9824588
   673   8 o      675   1 h                                       0.9789045
   676   8 o      677   1 h                                       0.9975418
   676   8 o      678   1 h                                       0.9556128
   679   8 o      680   1 h                                       0.9578726
   682   8 o      683   1 h                                       0.9730798
   682   8 o      684   1 h                                       0.9774893
   685   8 o      686   1 h                                       0.9648108
   685   8 o      687   1 h                                       0.9841928
   688   8 o      689   1 h                                       0.9704322
   688   8 o      690   1 h                                       0.9727755
   691   8 o      692   1 h                                       0.9668832
   691   8 o      693   1 h                                       0.9745260
   694   8 o      695   1 h                                       0.9815432
   694   8 o      696   1 h                                       0.9646880
   697   8 o      698   1 h                                       0.9746853
   697   8 o      699   1 h                                       0.9675211
   700   8 o      701   1 h                                       0.9879409
   700   8 o      702   1 h                                       0.9716601
   703   8 o      704   1 h                                       0.9735195
   703   8 o      705   1 h                                       0.9780763
   706   8 o      707   1 h                                       0.9672114
   706   8 o      708   1 h                                       0.9767847
   709   8 o      710   1 h                                       0.9604490
   709   8 o      711   1 h                                       0.9891531
   712   8 o      713   1 h                                       0.9695864
   712   8 o      714   1 h                                       0.9797343
   715   8 o      716   1 h                                       0.9840348
   715   8 o      717   1 h                                       0.9562661
   718   8 o      719   1 h                                       0.9628414
   718   8 o      720   1 h                                       0.9815510
   721   8 o      722   1 h                                       0.9627285
   721   8 o      723   1 h                                       0.9775409
   724   8 o      725   1 h                                       0.9610465
   724   8 o      726   1 h                                       0.9967157
   727   8 o      728   1 h                                       0.9791597
   727   8 o      729   1 h                                       0.9715364
   730   8 o      731   1 h                                       0.9718298
   730   8 o      732   1 h                                       0.9680176
   733   8 o      734   1 h                                       0.9695978
   733   8 o      735   1 h                                       0.9690020
   736   8 o      737   1 h                                       0.9696789
   736   8 o      738   1 h                                       0.9709551
   739   8 o      740   1 h                                       0.9705605
   739   8 o      741   1 h                                       0.9627275
   742   8 o      743   1 h                                       0.9715524
   742   8 o      744   1 h                                       0.9711843
   745   8 o      746   1 h                                       0.9694209
   745   8 o      747   1 h                                       0.9630941
   748   8 o      749   1 h                                       0.9795420
   748   8 o      750   1 h                                       0.9879687
   751   8 o      752   1 h                                       0.9588382
   751   8 o      753   1 h                                       0.9667630
   754   8 o      755   1 h                                       0.9576169
   754   8 o      756   1 h                                       0.9600352

 * 1 distinct bonds (by element types)

   Z      Z             #   av. dist./Å        max./Å        min./Å
   1 H    8 O         503     0.9735633     0.9976478     0.9552188


optimized geometry written to: xtbopt.coord


           -------------------------------------------------
          | TOTAL ENERGY            -1283.293277272973 Eh   |
          | GRADIENT NORM               0.002154010390 Eh/α |
          | HOMO-LUMO GAP               6.263735009247 eV   |
           -------------------------------------------------

------------------------------------------------------------------------
 * finished run on 2022/11/24 at 12:18:50.929     
------------------------------------------------------------------------
 total:
 * wall-time:     0 d,  0 h, 14 min,  6.929 sec
 *  cpu-time:     0 d,  0 h, 20 min, 52.426 sec
 * ratio c/w:     1.479 speedup
 SCF:
 * wall-time:     0 d,  0 h,  0 min, 21.262 sec
 *  cpu-time:     0 d,  0 h,  0 min, 34.274 sec
 * ratio c/w:     1.612 speedup
 ANC optimizer:
 * wall-time:     0 d,  0 h, 13 min, 44.634 sec
 *  cpu-time:     0 d,  0 h, 20 min, 16.424 sec
 * ratio c/w:     1.475 speedup

