      -----------------------------------------------------------      
     |                   =====================                   |     
     |                           x T B                           |     
     |                   =====================                   |     
     |                         S. Grimme                         |     
     |          Mulliken Center for Theoretical Chemistry        |     
     |                    University of Bonn                     |     
      -----------------------------------------------------------      

   * xtb version 6.5.1 (579679a) compiled by 'ehlert@majestix' on 2022-07-11

   xtb is free software: you can redistribute it and/or modify it under
   the terms of the GNU Lesser General Public License as published by
   the Free Software Foundation, either version 3 of the License, or
   (at your option) any later version.
   
   xtb is distributed in the hope that it will be useful,
   but WITHOUT ANY WARRANTY; without even the implied warranty of
   MERCHANTABILITY or FITNESS FOR A PARTICULAR PURPOSE.  See the
   GNU Lesser General Public License for more details.
   
   Cite this work as:
   * C. Bannwarth, E. Caldeweyher, S. Ehlert, A. Hansen, P. Pracht,
     J. Seibert, S. Spicher, S. Grimme, WIREs Comput. Mol. Sci., 2020, 11,
     e01493. DOI: 10.1002/wcms.1493
   
   for GFN2-xTB:
   * C. Bannwarth, S. Ehlert and S. Grimme., J. Chem. Theory Comput., 2019,
     15, 1652-1671. DOI: 10.1021/acs.jctc.8b01176
   for GFN1-xTB:
   * S. Grimme, C. Bannwarth, P. Shushkov, J. Chem. Theory Comput., 2017,
     13, 1989-2009. DOI: 10.1021/acs.jctc.7b00118
   for GFN0-xTB:
   * P. Pracht, E. Caldeweyher, S. Ehlert, S. Grimme, ChemRxiv, 2019, preprint.
     DOI: 10.26434/chemrxiv.8326202.v1
   for GFN-FF:
   * S. Spicher and S. Grimme, Angew. Chem. Int. Ed., 2020, 59, 15665-15673.
     DOI: 10.1002/anie.202004239
   
   for ALPB and GBSA implicit solvation:
   * S. Ehlert, M. Stahn, S. Spicher, S. Grimme, J. Chem. Theory Comput.,
     2021, 17, 4250-4261. DOI: 10.1021/acs.jctc.1c00471
   
   for DFT-D4:
   * E. Caldeweyher, C. Bannwarth and S. Grimme, J. Chem. Phys., 2017,
     147, 034112. DOI: 10.1063/1.4993215
   * E. Caldeweyher, S. Ehlert, A. Hansen, H. Neugebauer, S. Spicher,
     C. Bannwarth and S. Grimme, J. Chem. Phys., 2019, 150, 154122.
     DOI: 10.1063/1.5090222
   * E. Caldeweyher, J.-M. Mewes, S. Ehlert and S. Grimme, Phys. Chem. Chem. Phys.
     2020, 22, 8499-8512. DOI: 10.1039/D0CP00502A
   
   for sTDA-xTB:
   * S. Grimme and C. Bannwarth, J. Chem. Phys., 2016, 145, 054103.
     DOI: 10.1063/1.4959605
   
   in the mass-spec context:
   * V. Asgeirsson, C. Bauer and S. Grimme, Chem. Sci., 2017, 8, 4879.
     DOI: 10.1039/c7sc00601b
   * J. Koopman and S. Grimme, ACS Omega 2019, 4, 12, 15120-15133.
     DOI: 10.1021/acsomega.9b02011
   
   for metadynamics refer to:
   * S. Grimme, J. Chem. Theory Comput., 2019, 155, 2847-2862
     DOI: 10.1021/acs.jctc.9b00143
   
   for SPH calculations refer to:
   * S. Spicher and S. Grimme, J. Chem. Theory Comput., 2021, 17, 1701-1714
     DOI: 10.1021/acs.jctc.0c01306
   
   with help from (in alphabetical order)
   P. Atkinson, C. Bannwarth, F. Bohle, G. Brandenburg, E. Caldeweyher
   M. Checinski, S. Dohm, S. Ehlert, S. Ehrlich, I. Gerasimov, C. Hölzer
   A. Katbashev, J. Koopman, C. Lavigne, S. Lehtola, F. März, M. Müller,
   F. Musil, H. Neugebauer, J. Pisarek, C. Plett, P. Pracht, F. Pultar,
   J. Seibert, P. Shushkov, S. Spicher, M. Stahn, M. Steiner, T. Strunk,
   J. Stückrath, T. Rose, and J. Unsleber
   
 * started run on 2022/11/24 at 12:21:40.836     

           -------------------------------------------------
          |                Calculation Setup                |
           -------------------------------------------------

          program call               : xtb solvent_cluster.coord --gfn2 --sp --lmo --chrg 0
          hostname                   : cn0430
          coordinate file            : solvent_cluster.coord
          omp threads                :                     2

   ID    Z sym.   atoms
    1    8 o      1, 4, 7, 10, 13, 16, 19, 22, 25, 28, 31, 34, 37, 40, 43,
                  46, 49, 52, 55, 58, 61, 64, 67, 70, 73, 76, 79, 82, 85, 88,
                  91, 94, 97, 100, 103, 106, 109, 112, 115, 118, 121, 124,
                  127, 130, 133, 136, 139, 142, 145, 148, 151, 154, 157, 160,
                  163, 166, 169, 172, 175, 178, 181, 184, 187, 190, 193, 196,
                  199, 202, 205, 208, 211, 214, 217, 220, 223, 226, 229, 232,
                  235, 238, 241, 244, 247, 250, 253, 256, 259, 262, 265, 268,
                  271, 274, 277, 280, 283, 286, 289, 292, 295, 298, 301, 304,
                  307, 310, 313, 316, 319, 322, 325, 328, 331, 334, 337, 340,
                  343, 346, 349, 352, 355, 358, 361, 364, 367, 370, 373, 376,
                  379, 382, 385, 388, 391, 394, 397, 400, 403, 406, 409, 412,
                  415, 418, 421, 424, 427, 430, 433, 436, 439, 442, 445, 448,
                  451, 454, 457, 460, 463, 466, 469, 472, 475, 478, 481, 484,
                  487, 490, 493, 496, 499, 502, 505, 508, 511, 514, 517, 520,
                  523, 526, 529, 532, 535, 538, 541, 544, 547, 550, 553, 556,
                  559, 562, 565, 568, 571, 574, 577, 580, 583, 586, 589, 592,
                  595, 598, 601, 604, 607, 610, 613, 616, 619, 622, 625, 628,
                  631, 634, 637, 640, 643, 646, 649, 652, 655, 658, 661, 664,
                  667, 670, 673, 676, 679, 682, 685, 688, 691, 694, 697, 700,
                  703, 706, 709, 712, 715, 718, 721, 724, 727, 730, 733, 736,
                  739, 742, 745, 748, 751, 754
    2    1 h      2, 3, 5, 6, 8, 9, 11, 12, 14, 15, 17, 18, 20, 21, 23, 24,
                  26, 27, 29, 30, 32, 33, 35, 36, 38, 39, 41, 42, 44, 45, 47,
                  48, 50, 51, 53, 54, 56, 57, 59, 60, 62, 63, 65, 66, 68, 69,
                  71, 72, 74, 75, 77, 78, 80, 81, 83, 84, 86, 87, 89, 90, 92,
                  93, 95, 96, 98, 99, 101, 102, 104, 105, 107, 108, 110, 111,
                  113, 114, 116, 117, 119, 120, 122, 123, 125, 126, 128, 129,
                  131, 132, 134, 135, 137, 138, 140, 141, 143, 144, 146, 147,
                  149, 150, 152, 153, 155, 156, 158, 159, 161, 162, 164, 165,
                  167, 168, 170, 171, 173, 174, 176, 177, 179, 180, 182, 183,
                  185, 186, 188, 189, 191, 192, 194, 195, 197, 198, 200, 201,
                  203, 204, 206, 207, 209, 210, 212, 213, 215, 216, 218, 219,
                  221, 222, 224, 225, 227, 228, 230, 231, 233, 234, 236, 237,
                  239, 240, 242, 243, 245, 246, 248, 249, 251, 252, 254, 255,
                  257, 258, 260, 261, 263, 264, 266, 267, 269, 270, 272, 273,
                  275, 276, 278, 279, 281, 282, 284, 285, 287, 288, 290, 291,
                  293, 294, 296, 297, 299, 300, 302, 303, 305, 306, 308, 309,
                  311, 312, 314, 315, 317, 318, 320, 321, 323, 324, 326, 327,
                  329, 330, 332, 333, 335, 336, 338, 339, 341, 342, 344, 345,
                  347, 348, 350, 351, 353, 354, 356, 357, 359, 360, 362, 363,
                  365, 366, 368, 369, 371, 372, 374, 375, 377, 378, 380, 381,
                  383, 384, 386, 387, 389, 390, 392, 393, 395, 396, 398, 399,
                  401, 402, 404, 405, 407, 408, 410, 411, 413, 414, 416, 417,
                  419, 420, 422, 423, 425, 426, 428, 429, 431, 432, 434, 435,
                  437, 438, 440, 441, 443, 444, 446, 447, 449, 450, 452, 453,
                  455, 456, 458, 459, 461, 462, 464, 465, 467, 468, 470, 471,
                  473, 474, 476, 477, 479, 480, 482, 483, 485, 486, 488, 489,
                  491, 492, 494, 495, 497, 498, 500, 501, 503, 504, 506, 507,
                  509, 510, 512, 513, 515, 516, 518, 519, 521, 522, 524, 525,
                  527, 528, 530, 531, 533, 534, 536, 537, 539, 540, 542, 543,
                  545, 546, 548, 549, 551, 552, 554, 555, 557, 558, 560, 561,
                  563, 564, 566, 567, 569, 570, 572, 573, 575, 576, 578, 579,
                  581, 582, 584, 585, 587, 588, 590, 591, 593, 594, 596, 597,
                  599, 600, 602, 603, 605, 606, 608, 609, 611, 612, 614, 615,
                  617, 618, 620, 621, 623, 624, 626, 627, 629, 630, 632, 633,
                  635, 636, 638, 639, 641, 642, 644, 645, 647, 648, 650, 651,
                  653, 654, 656, 657, 659, 660, 662, 663, 665, 666, 668, 669,
                  671, 672, 674, 675, 677, 678, 680, 681, 683, 684, 686, 687,
                  689, 690, 692, 693, 695, 696, 698, 699, 701, 702, 704, 705,
                  707, 708, 710, 711, 713, 714, 716, 717, 719, 720, 722, 723,
                  725, 726, 728, 729, 731, 732, 734, 735, 737, 738, 740, 741,
                  743, 744, 746, 747, 749, 750, 752, 753, 755, 756

molecular fragmentation (1/2 indicates fragments):
111222222222222222222222222222222222222222222222222222222222222222222222
222222222222222222222222222222222222222222222222222222222222222222222222
222222222222222222222222222222222222222222222222222222222222222222222222
222222222222222222222222222222222222222222222222222222222222222222222222
222222222222222222222222222222222222222222222222222222222222222222222222
222222222222222222222222222222222222222222222222222222222222222222222222
222222222222222222222222222222222222222222222222222222222222222222222222
222222222222222222222222222222222222222222222222222222222222222222222222
222222222222222222222222222222222222222222222222222222222222222222222222
222222222222222222222222222222222222222222222222222222222222222222222222
222222222222222222222222222222222222
# atoms in fragment 1/2:     3   753
 fragment masses (1/2) :       18.02     4521.84
CMA distance (Bohr)    :  15.880
constraining FC (au)   :  0.0500

           -------------------------------------------------
          |                 G F N 2 - x T B                 |
           -------------------------------------------------

        Reference                      10.1021/acs.jctc.8b01176
      * Hamiltonian:
        H0-scaling (s, p, d)           1.850000    2.230000    2.230000
        zeta-weighting                 0.500000
      * Dispersion:
        s8                             2.700000
        a1                             0.520000
        a2                             5.000000
        s9                             5.000000
      * Repulsion:
        kExp                           1.500000    1.000000
        rExp                           1.000000
      * Coulomb:
        alpha                          2.000000
        third order                    shell-resolved
        anisotropic                    true
        a3                             3.000000
        a5                             4.000000
        cn-shift                       1.200000
        cn-exp                         4.000000
        max-rad                        5.000000


          ...................................................
          :                      SETUP                      :
          :.................................................:
          :  # basis functions                1512          :
          :  # atomic orbitals                1512          :
          :  # shells                         1008          :
          :  # electrons                      2016          :
          :  max. iterations                   250          :
          :  Hamiltonian                  GFN2-xTB          :
          :  restarted?                      false          :
          :  GBSA solvation                  false          :
          :  PC potential                    false          :
          :  electronic temp.          300.0000000     K    :
          :  accuracy                    1.0000000          :
          :  -> integral cutoff          0.2500000E+02      :
          :  -> integral neglect         0.1000000E-07      :
          :  -> SCF convergence          0.1000000E-05 Eh   :
          :  -> wf. convergence          0.1000000E-03 e    :
          :  Broyden damping             0.4000000          :
          ...................................................

 iter      E             dE          RMSdq      gap      omega  full diag
   1  -1290.9777951 -0.129098E+04  0.407E+00    8.48       0.0  T
   2  -1291.0536887 -0.758936E-01  0.242E+00    7.45       1.0  T
   3  -1291.0853850 -0.316963E-01  0.210E-01    5.82       1.0  T
   4  -1291.0906840 -0.529897E-02  0.459E-02    6.31       1.0  T
   5  -1291.0907708 -0.868475E-04  0.311E-02    6.23       1.0  T
   6  -1291.0908120 -0.411941E-04  0.428E-03    6.27       1.0  T
   7  -1291.0908145 -0.246143E-05  0.733E-04    6.26       5.0  T
   8  -1291.0908145 -0.276796E-07  0.372E-04    6.26       9.8  T
   9  -1291.0908145 -0.131413E-07  0.695E-05    6.26      52.4  T

   *** convergence criteria satisfied after 9 iterations ***

         #    Occupation            Energy/Eh            Energy/eV
      -------------------------------------------------------------
         1        2.0000           -0.6976528             -18.9841
       ...           ...                  ...                  ...
      1002        2.0000           -0.3462619              -9.4223
      1003        2.0000           -0.3460319              -9.4160
      1004        2.0000           -0.3404842              -9.2650
      1005        2.0000           -0.3344579              -9.1011
      1006        2.0000           -0.3335763              -9.0771
      1007        2.0000           -0.3229888              -8.7890
      1008        2.0000           -0.3111015              -8.4655 (HOMO)
      1009                         -0.0809171              -2.2019 (LUMO)
      1010                         -0.0662493              -1.8027
      1011                         -0.0620760              -1.6892
      1012                         -0.0560077              -1.5240
      1013                         -0.0508660              -1.3841
       ...                                ...                  ...
      1512                          0.4863830              13.2352
      -------------------------------------------------------------
                  HL-Gap            0.2301844 Eh            6.2636 eV
             Fermi-level           -0.1960093 Eh           -5.3337 eV
 
 localization/xTB-IFF output generation
 averaging CT terms over            1  occ. levels
 averaging CT terms over            1  virt. levels
 dipole moment from electron density (au)
     X       Y       Z   
   4.7801   1.3859   0.8536  total (Debye):   12.835
cpu  time for init local    0.78 s
wall time for init local    0.39 s
 doing rotations ...
 initialization of trafo matrix to unity

 converged in     16 iterations, threshold :   0.99999523D-06
 doing transformations ...
 lmo centers(Z=2) and atoms on file <lmocent.coord>
 LMO Fii/eV  ncent    charge center   contributions...
    1 LP   *******   0.00  -8.04893  -3.83772  10.16741  493O : 21.93  100O : 17.22  169O : 16.16  139O : 14.95  487O : 14.69  244O : 14.55    7O : 14.35   28O : 14.06  745O : 13.87   10O : 13.26  544O : 12.93   67O : 12.47
   13O : 12.26  502O : 11.92  577O : 11.90  175O : 11.42  751O : 11.28  163O : 11.17   79O : 11.08  118O : 10.90  268O : 10.85  550O : 10.66  547O : 10.55  625O : 10.38
  154O : 10.37  157O : 10.31  133O : 10.07   19O : 10.03  148O : 10.00  478O :  9.90  373O :  9.84  316O :  9.59  541O :  9.58  376O :  9.47  670O :  9.26   40O :  8.94
  562O :  8.91  106O :  8.81  334O :  8.81  472O :  8.73  538O :  8.47  628O :  8.31   82O :  8.25   94O :  8.22  748O :  8.17  700O :  7.74  673O :  7.70  568O :  7.65
  238O :  7.54   55O :  7.44  457O :  7.28  508O :  7.20   85O :  7.06  382O :  7.06  166O :  7.06  115O :  7.03  160O :  6.84  637O :  6.78  535O :  6.56  340O :  6.52
  415O :  6.49  709O :  6.46  352O :  6.45  187O :  6.25  328O :  6.20  616O :  6.16  346O :  6.08   49O :  6.02  151O :  5.73  361O :  5.68  235O :  5.57  130O :  5.56
  391O :  5.41  199O :  5.39  619O :  5.35  514O :  5.33  103O :  5.29  754O :  5.20  145O :  5.15  271O :  5.12  379O :  5.11   97O :  5.10  280O :  5.03  703O :  4.97
  451O :  4.96   31O :  4.95  445O :  4.94  505O :  4.84  727O :  4.79  220O :  4.71  109O :  4.70  172O :  4.61  112O :  4.58  136O :  4.52    1O :  4.48  406O :  4.43
  256O :  4.41  601O :  4.38   70O :  4.37   34O :  4.35   25O :  4.33  448O :  4.29  409O :  4.23  658O :  4.23  310O :  4.19  466O :  4.16  307O :  4.13  247O :  4.10
  589O :  4.04   64O :  4.00  595O :  3.96  274O :  3.87  178O :  3.76  631O :  3.74  433O :  3.74  475O :  3.71   91O :  3.71  388O :  3.68  742O :  3.66  253O :  3.65
  226O :  3.64  202O :  3.61  394O :  3.61   37O :  3.58  604O :  3.58  295O :  3.57  439O :  3.57  460O :  3.57  259O :  3.52  640O :  3.51  205O :  3.47  610O :  3.40
  427O :  3.39  181O :  3.30  421O :  3.29   88O :  3.25  655O :  3.18  526O :  3.17  622O :  3.16  232O :  3.13  736O :  3.07  241O :  3.02  319O :  3.02  403O :  3.01
  430O :  3.01  652O :  2.96  229O :  2.96  598O :  2.96  286O :  2.95  580O :  2.94  646O :  2.92  676O :  2.89  484O :  2.88  322O :  2.84  667O :  2.84  481O :  2.81
  196O :  2.80  454O :  2.78  190O :  2.78   16O :  2.74  208O :  2.71  643O :  2.68   76O :  2.66   21H :  2.63  217O :  2.62  694O :  2.58  523O :  2.51   52O :  2.51
  706O :  2.49  712O :  2.42  289O :  2.33  337O :  2.33  436O :  2.27  532O :  2.26  349O :  2.24   46O :  2.18  718O :  2.17  301O :  2.14  469O :  2.12  520O :  2.07
   58O :  2.03  153H :  2.01  211O :  1.96   36H :  1.95  511O :  1.94  730O :  1.93  715O :  1.93  343O :  1.88   61O :  1.87  739O :  1.87  613O :  1.86  565O :  1.85
  150H :  1.84  607O :  1.83  331O :  1.78  304O :  1.76  685O :  1.75  283O :  1.71  463O :  1.70   43O :  1.64  724O :  1.63  583O :  1.60  385O :  1.58    8H :  1.57
  733O :  1.56  400O :  1.53  325O :  1.52  397O :  1.51  752H :  1.50  142O :  1.47  358O :  1.46  250O :  1.41  335H :  1.39  634O :  1.34  313O :  1.32  342H :  1.29
  347H :  1.28  367O :  1.28  277O :  1.26  697O :  1.24   63H :  1.22  473H :  1.22  586O :  1.20  539H :  1.20   90H :  1.19  682O :  1.11  571O :  1.10  127O :  1.10
  223O :  1.10  564H :  1.10  262O :  1.09  165H :  1.05  747H :  1.03  617H :  1.02  121O :  1.02  156H :  0.98  462H :  0.97  664O :  0.95  124O :  0.93  678H :  0.91
  556O :  0.90    3H :  0.89  569H :  0.89   42H :  0.88  546H :  0.88  529O :  0.86  191H :  0.86  630H :  0.84  691O :  0.83  649O :  0.83  355O :  0.82  254H :  0.80
  490O :  0.80  672H :  0.79  132H :  0.79  255H :  0.79   14H :  0.77  496O :  0.76  452H :  0.74  515H :  0.74  176H :  0.73  298O :  0.72  418O :  0.71   22O :  0.70
  177H :  0.70  270H :  0.70  506H :  0.70  265O :  0.70   38H :  0.69   32H :  0.68   65H :  0.67  587H :  0.66  297H :  0.65   11H :  0.64   93H :  0.64  281H :  0.63
  330H :  0.63  167H :  0.62  661O :  0.60  639H :  0.60  370O :  0.59  432H :  0.59  513H :  0.58  592O :  0.58   73O :  0.57  559O :  0.57    4O :  0.56  668H :  0.55
  708H :  0.55  545H :  0.54  362H :  0.54   71H :  0.54  408H :  0.54  412O :  0.54  551H :  0.54  291H :  0.53  679O :  0.53  422H :  0.52  603H :  0.52  203H :  0.52
  318H :  0.52  429H :  0.51  119H :  0.51  339H :  0.50  214O :  0.50  702H :  0.49  654H :  0.48  404H :  0.47  323H :  0.47  605H :  0.47  482H :  0.47  647H :  0.46
   30H :  0.45  273H :  0.45  239H :  0.44   98H :  0.44  618H :  0.44  704H :  0.44  750H :  0.44   50H :  0.43  357H :  0.43  170H :  0.42  499O :  0.42  380H :  0.41
  184O :  0.41  726H :  0.41  465H :  0.41   87H :  0.41  410H :  0.41  365H :  0.41  548H :  0.40  491H :  0.40   95H :  0.39  591H :  0.39  383H :  0.39  600H :  0.39
  720H :  0.39  272H :  0.39  614H :  0.38  240H :  0.38  507H :  0.38  657H :  0.37  364O :  0.37  553O :  0.37  528H :  0.36  375H :  0.35  449H :  0.35  705H :  0.35
  582H :  0.35  611H :  0.35  216H :  0.34  470H :  0.34  377H :  0.34  390H :  0.33  359H :  0.33  687H :  0.33  467H :  0.33  336H :  0.32  212H :  0.32  536H :  0.32
  721O :  0.31  314H :  0.31  638H :  0.31  329H :  0.31  192H :  0.31  442O :  0.31  372H :  0.30  140H :  0.30  114H :  0.30  411H :  0.30  288H :  0.29  105H :  0.29
  292O :  0.29  458H :  0.29  477H :  0.29  471H :  0.28  540H :  0.28  476H :  0.28  107H :  0.28  456H :  0.27  332H :  0.27  242H :  0.27  333H :  0.27  455H :  0.26
  612H :  0.26  120H :  0.26  500H :  0.26  251H :  0.26  135H :  0.26  441H :  0.26  143H :  0.25  728H :  0.25  164H :  0.24  236H :  0.24   33H :  0.24  608H :  0.24
  159H :  0.24  594H :  0.23  351H :  0.23  222H :  0.23  574O :  0.22  134H :  0.22   24H :  0.22  374H :  0.22  534H :  0.22  743H :  0.21  741H :  0.21  636H :  0.21
  341H :  0.21  210H :  0.21  488H :  0.20  296H :  0.20  193O :  0.20  252H :  0.20  522H :  0.20  627H :  0.20  231H :  0.19  699H :  0.19  350H :  0.18  680H :  0.18
  413H :  0.18  386H :  0.18   41H :  0.18  402H :  0.17  563H :  0.17  353H :  0.17  734H :  0.17  626H :  0.17  219H :  0.17  399H :  0.16  363H :  0.16  204H :  0.16
  122H :  0.16  420H :  0.16  290H :  0.16  126H :  0.16  494H :  0.16  171H :  0.16  123H :  0.16  302H :  0.15  326H :  0.15  293H :  0.15  517O :  0.15  509H :  0.15
   20H :  0.15  729H :  0.15  230H :  0.15  189H :  0.15   69H :  0.15  345H :  0.14  228H :  0.14  261H :  0.14  716H :  0.14  233H :  0.14  621H :  0.14  431H :  0.14
  206H :  0.14  453H :  0.14  665H :  0.14  584H :  0.14  179H :  0.14  401H :  0.13  653H :  0.13  662H :  0.13  542H :  0.13  141H :  0.13  183H :  0.13  129H :  0.13
   81H :  0.13  155H :  0.13  243H :  0.13  146H :  0.13  317H :  0.13  224H :  0.13  642H :  0.13  381H :  0.12  620H :  0.12  147H :  0.12  489H :  0.12  101H :  0.12
  248H :  0.12  498H :  0.12   51H :  0.12  138H :  0.12  690H :  0.12   45H :  0.11  279H :  0.11  300H :  0.11  315H :  0.11  113H :  0.11  198H :  0.11  663H :  0.11
  609H :  0.11  447H :  0.11  173H :  0.11  275H :  0.11  659H :  0.11   54H :  0.10  321H :  0.10  510H :  0.10  416H :  0.10  117H :  0.10  197H :  0.10  629H :  0.10
  459H :  0.10  446H :  0.10  461H :  0.09  257H :  0.09  389H :  0.09  579H :  0.09  209H :  0.09  688O :  0.09  393H :  0.09  424O :  0.09  552H :  0.09  480H :  0.09
   12H :  0.09  560H :  0.09  599H :  0.09  417H :  0.09  384H :  0.08  570H :  0.08  378H :  0.08  438H :  0.08  234H :  0.08  258H :  0.08  284H :  0.08  434H :  0.08
  623H :  0.08  524H :  0.08  744H :  0.08  354H :  0.08  753H :  0.08   92H :  0.08  531H :  0.07  738H :  0.07  468H :  0.07  368H :  0.07  360H :  0.07
    2 LP   *******   0.00 -26.71448 -32.34001 -42.62008  493O : 16.06  487O : 14.98  100O : 14.06  169O : 13.19  139O : 12.21  244O : 11.88    7O : 11.72   28O : 11.48  745O : 11.32   10O : 10.83  544O : 10.62   67O : 10.18
   13O : 10.01  502O :  9.73  577O :  9.72  175O :  9.32  751O :  9.21  163O :  9.12  118O :  9.07   79O :  9.04  268O :  8.86  550O :  8.71  547O :  8.62  625O :  8.47
  154O :  8.47  157O :  8.42  133O :  8.23   19O :  8.19  148O :  8.17  478O :  8.08  373O :  8.04  316O :  7.83  541O :  7.82  376O :  7.73  670O :  7.59   40O :  7.30
  562O :  7.28  106O :  7.20  334O :  7.19  472O :  7.13  538O :  6.92  628O :  6.78   82O :  6.74   94O :  6.71  748O :  6.67  700O :  6.31  673O :  6.29  568O :  6.25
  238O :  6.19   55O :  6.07  457O :  5.95  508O :  5.88   85O :  5.77  382O :  5.76  166O :  5.76  115O :  5.74  160O :  5.58  637O :  5.53  535O :  5.35  709O :  5.33
  340O :  5.33  415O :  5.30  352O :  5.27  187O :  5.11  328O :  5.07  616O :  5.00  346O :  4.96   49O :  4.94  151O :  4.68  361O :  4.64  235O :  4.54  130O :  4.53
  199O :  4.44  391O :  4.42  619O :  4.37  514O :  4.35  103O :  4.32  754O :  4.25  145O :  4.20  271O :  4.17  379O :  4.17   97O :  4.17  280O :  4.11  703O :  4.06
  451O :  4.05   31O :  4.04  445O :  4.04  505O :  3.95  727O :  3.91  220O :  3.84  109O :  3.84  172O :  3.78  112O :  3.74  136O :  3.69    1O :  3.65  406O :  3.62
  256O :  3.60  601O :  3.58   70O :  3.57   34O :  3.55   25O :  3.53  448O :  3.50  409O :  3.45  658O :  3.45  310O :  3.42  466O :  3.40  307O :  3.37  247O :  3.35
  589O :  3.31   64O :  3.27  595O :  3.23  274O :  3.16  178O :  3.07  631O :  3.06  433O :  3.05  475O :  3.03   91O :  3.03  388O :  3.01  742O :  2.99  253O :  2.98
  226O :  2.97  202O :  2.95  394O :  2.95   37O :  2.93  604O :  2.92  295O :  2.91  439O :  2.91  460O :  2.91  259O :  2.88  640O :  2.86  205O :  2.84  610O :  2.77
  427O :  2.77  403O :  2.73  181O :  2.69  421O :  2.68   88O :  2.65  655O :  2.60  526O :  2.59  622O :  2.58  232O :  2.55  736O :  2.51  241O :  2.46  319O :  2.46
  286O :  2.46  430O :  2.45  652O :  2.42  229O :  2.42  598O :  2.41  580O :  2.39  646O :  2.38  676O :  2.36  484O :  2.35  322O :  2.32  667O :  2.32  481O :  2.30
  196O :  2.29  454O :  2.27  190O :  2.27   16O :  2.24  208O :  2.21  643O :  2.18   76O :  2.17   21H :  2.15  217O :  2.14  694O :  2.12   52O :  2.05  523O :  2.05
  706O :  2.03  712O :  1.98  289O :  1.91  337O :  1.90  436O :  1.85  532O :  1.84  349O :  1.83   46O :  1.78  718O :  1.77  301O :  1.74  469O :  1.73  520O :  1.69
   58O :  1.65  153H :  1.64  211O :  1.60   36H :  1.59  511O :  1.58  730O :  1.57  715O :  1.57  343O :  1.54  739O :  1.53   61O :  1.52  613O :  1.52  565O :  1.51
  150H :  1.50  607O :  1.49  304O :  1.44  685O :  1.43  331O :  1.42  283O :  1.40  463O :  1.39   43O :  1.34  724O :  1.33  583O :  1.31  385O :  1.29    8H :  1.28
  733O :  1.27  400O :  1.25  325O :  1.24  397O :  1.23  752H :  1.22  142O :  1.20  358O :  1.19  250O :  1.15  335H :  1.14  634O :  1.10  313O :  1.08  342H :  1.05
  347H :  1.04  367O :  1.04  277O :  1.03  697O :  1.01   63H :  1.00  473H :  1.00  586O :  0.98  539H :  0.98   90H :  0.98  682O :  0.91  571O :  0.90  127O :  0.90
  223O :  0.90  564H :  0.90  262O :  0.89  165H :  0.85  747H :  0.84  617H :  0.84  121O :  0.83  156H :  0.80  462H :  0.79  664O :  0.78  124O :  0.76  678H :  0.74
  556O :  0.73    3H :  0.73  569H :  0.73   42H :  0.72  546H :  0.72  529O :  0.70  191H :  0.70  672H :  0.68  630H :  0.68  691O :  0.68  649O :  0.67  355O :  0.66
  254H :  0.65  490O :  0.65  132H :  0.65  255H :  0.65   14H :  0.63  496O :  0.62  452H :  0.61  515H :  0.60  176H :  0.59  298O :  0.59  418O :  0.58   22O :  0.57
  177H :  0.57  270H :  0.57  506H :  0.57  265O :  0.57   38H :  0.57   32H :  0.56   65H :  0.55  587H :  0.54  297H :  0.53   11H :  0.52   93H :  0.52  281H :  0.51
  330H :  0.51  167H :  0.51  661O :  0.49  639H :  0.49  370O :  0.48  432H :  0.48  513H :  0.48  592O :  0.47   73O :  0.46  559O :  0.46    4O :  0.46  668H :  0.45
  708H :  0.45  362H :  0.44  412O :  0.44   71H :  0.44  408H :  0.44  551H :  0.44  291H :  0.43  679O :  0.43  545H :  0.43  422H :  0.43  603H :  0.43  203H :  0.42
  318H :  0.42  119H :  0.42  429H :  0.42  339H :  0.41  214O :  0.41  702H :  0.40  654H :  0.39  404H :  0.39  323H :  0.38  482H :  0.38  605H :  0.38  647H :  0.37
   30H :  0.37  239H :  0.37  273H :  0.36   98H :  0.36  704H :  0.36   50H :  0.36  750H :  0.36  357H :  0.35  170H :  0.35  499O :  0.34  380H :  0.34  184O :  0.34
  726H :  0.34  465H :  0.34   87H :  0.34  410H :  0.33  365H :  0.33  548H :  0.33  491H :  0.33   95H :  0.32  591H :  0.32  383H :  0.32  600H :  0.32  720H :  0.32
  272H :  0.32  614H :  0.31  618H :  0.31  507H :  0.31  240H :  0.31  657H :  0.30  364O :  0.30  553O :  0.30  528H :  0.30  375H :  0.29  449H :  0.29  705H :  0.29
  582H :  0.28  611H :  0.28  216H :  0.28  470H :  0.28  377H :  0.27  390H :  0.27  359H :  0.27  467H :  0.27  687H :  0.27  336H :  0.27  212H :  0.26  536H :  0.26
  721O :  0.26  314H :  0.26  638H :  0.26  329H :  0.25  192H :  0.25  442O :  0.25  372H :  0.25  140H :  0.25  114H :  0.24  411H :  0.24  105H :  0.24  292O :  0.24
  288H :  0.23  458H :  0.23  477H :  0.23  471H :  0.23  540H :  0.23  476H :  0.23  107H :  0.23  456H :  0.22  242H :  0.22  332H :  0.22  455H :  0.22  612H :  0.22
  120H :  0.21  500H :  0.21  251H :  0.21  135H :  0.21  441H :  0.21  333H :  0.21  143H :  0.20  728H :  0.20  164H :  0.20  236H :  0.20   33H :  0.19  608H :  0.19
  159H :  0.19  594H :  0.19  351H :  0.19  222H :  0.19  574O :  0.18  134H :  0.18   24H :  0.18  374H :  0.18  743H :  0.17  741H :  0.17  636H :  0.17  341H :  0.17
  210H :  0.17  534H :  0.17  296H :  0.17  193O :  0.17  494H :  0.16  252H :  0.16  522H :  0.16  627H :  0.16  231H :  0.15  699H :  0.15  350H :  0.15  680H :  0.15
  413H :  0.15  386H :  0.15   41H :  0.15  402H :  0.14  563H :  0.14  353H :  0.14  734H :  0.14  626H :  0.14  219H :  0.14  399H :  0.13  363H :  0.13  204H :  0.13
  122H :  0.13  420H :  0.13  290H :  0.13  126H :  0.13  171H :  0.13  123H :  0.13  302H :  0.13  326H :  0.13  488H :  0.12  293H :  0.12  517O :  0.12   20H :  0.12
  509H :  0.12  729H :  0.12  230H :  0.12  189H :  0.12   69H :  0.12  345H :  0.12  228H :  0.12  261H :  0.12  233H :  0.12  716H :  0.12  621H :  0.12  431H :  0.11
  206H :  0.11  453H :  0.11  665H :  0.11  584H :  0.11  179H :  0.11  662H :  0.11  401H :  0.11  653H :  0.11  542H :  0.11  141H :  0.11  129H :  0.11   81H :  0.11
  155H :  0.11  183H :  0.10  243H :  0.10  146H :  0.10  317H :  0.10  224H :  0.10  642H :  0.10  381H :  0.10  620H :  0.10  147H :  0.10  101H :  0.10  248H :  0.10
  498H :  0.10   51H :  0.10  138H :  0.10  690H :  0.10   45H :  0.09  279H :  0.09  300H :  0.09  315H :  0.09  113H :  0.09  198H :  0.09  609H :  0.09  447H :  0.09
  663H :  0.09  275H :  0.09  173H :  0.09  659H :  0.09  321H :  0.08   54H :  0.08  510H :  0.08  416H :  0.08  117H :  0.08  197H :  0.08  629H :  0.08  459H :  0.08
  446H :  0.08  461H :  0.08  257H :  0.08  389H :  0.07  579H :  0.07  209H :  0.07  688O :  0.07  393H :  0.07  424O :  0.07  552H :  0.07  480H :  0.07   12H :  0.07
  560H :  0.07  599H :  0.07
    3 LP   *******   0.00 -12.37629 -31.19967 -52.72915  493O : 15.65  100O : 13.70  544O : 12.94  169O : 12.85  139O : 11.89  487O : 11.82  244O : 11.58    7O : 11.42   28O : 11.19  745O : 11.03   10O : 10.55   67O :  9.92
   13O :  9.75  502O :  9.48  577O :  9.47  175O :  9.09  751O :  8.98  163O :  8.89  118O :  8.84   79O :  8.81  268O :  8.63  550O :  8.48  547O :  8.40  625O :  8.26
  154O :  8.25  157O :  8.21  133O :  8.02   19O :  7.98  148O :  7.96  478O :  7.85  373O :  7.83  316O :  7.63  541O :  7.62  376O :  7.53  670O :  7.40   40O :  7.11
  562O :  7.09  106O :  7.01  334O :  7.01  472O :  6.95  538O :  6.74  628O :  6.61   82O :  6.56   94O :  6.54  748O :  6.50  700O :  6.16  673O :  6.13  568O :  6.09
  238O :  5.99   55O :  5.92  457O :  5.79  508O :  5.73   85O :  5.62  382O :  5.62  166O :  5.62  115O :  5.59  160O :  5.44  637O :  5.39  535O :  5.22  709O :  5.19
  340O :  5.19  415O :  5.17  352O :  5.13  187O :  4.98  328O :  4.94  616O :  4.90  346O :  4.84   49O :  4.82  151O :  4.56  361O :  4.52  235O :  4.43  130O :  4.42
  199O :  4.38  391O :  4.31  619O :  4.26  514O :  4.24  103O :  4.21  754O :  4.14  145O :  4.10  271O :  4.07  379O :  4.06   97O :  4.06  280O :  4.00  703O :  3.95
  451O :  3.94   31O :  3.94  445O :  3.93  505O :  3.85  727O :  3.81  220O :  3.75  109O :  3.74  172O :  3.68  112O :  3.65  136O :  3.60    1O :  3.56  406O :  3.52
  256O :  3.51  601O :  3.49   70O :  3.48   34O :  3.46   25O :  3.44  448O :  3.41  409O :  3.37  658O :  3.36  310O :  3.34  466O :  3.31  307O :  3.28  247O :  3.26
  589O :  3.22   64O :  3.18  595O :  3.15  274O :  3.08  178O :  2.99  631O :  2.98  433O :  2.98   91O :  2.97  475O :  2.95  388O :  2.93  742O :  2.91  253O :  2.90
  226O :  2.89  202O :  2.87  394O :  2.87   37O :  2.86  604O :  2.85  295O :  2.84  439O :  2.84  460O :  2.84  259O :  2.80  640O :  2.79  205O :  2.76  610O :  2.70
  427O :  2.70  403O :  2.66  181O :  2.62  421O :  2.62   88O :  2.59  655O :  2.53  622O :  2.51  526O :  2.50  232O :  2.49  736O :  2.45  241O :  2.40  319O :  2.40
  286O :  2.40  430O :  2.39  652O :  2.36  229O :  2.36  598O :  2.35  580O :  2.33  646O :  2.32  676O :  2.30  484O :  2.29  322O :  2.26  667O :  2.26  481O :  2.24
  196O :  2.23  454O :  2.21  190O :  2.21   16O :  2.18  208O :  2.16  643O :  2.13   76O :  2.12   21H :  2.09  217O :  2.09  694O :  2.06   52O :  2.00  523O :  1.99
  706O :  1.98  712O :  1.93  289O :  1.86  337O :  1.85  532O :  1.81  436O :  1.80  349O :  1.78   46O :  1.74  718O :  1.73  301O :  1.70  469O :  1.68  520O :  1.65
   58O :  1.61  153H :  1.60  211O :  1.56   36H :  1.55  511O :  1.54  730O :  1.53  715O :  1.53  343O :  1.50  739O :  1.49   61O :  1.48  613O :  1.48  565O :  1.47
  150H :  1.47  607O :  1.45  304O :  1.40  685O :  1.39  331O :  1.38  283O :  1.36  463O :  1.35   43O :  1.30  724O :  1.30  583O :  1.27  385O :  1.26    8H :  1.25
  733O :  1.24  400O :  1.21  325O :  1.21  397O :  1.20  752H :  1.19  142O :  1.17  358O :  1.16  250O :  1.12  335H :  1.11  634O :  1.07  313O :  1.05  342H :  1.02
  347H :  1.02  367O :  1.02  277O :  1.01  697O :  0.99   63H :  0.97  473H :  0.97  586O :  0.96  539H :  0.95   90H :  0.95  682O :  0.89  571O :  0.88  127O :  0.88
  223O :  0.88  564H :  0.87  262O :  0.87  165H :  0.83  747H :  0.82  121O :  0.81  617H :  0.81  156H :  0.78  462H :  0.77  664O :  0.76  124O :  0.74  678H :  0.72
  556O :  0.72    3H :  0.71  569H :  0.71   42H :  0.70  529O :  0.69  191H :  0.69  672H :  0.67  630H :  0.66  691O :  0.66  649O :  0.66  355O :  0.65  254H :  0.63
  490O :  0.63  132H :  0.63  255H :  0.63   14H :  0.61  546H :  0.61  496O :  0.61  452H :  0.59  515H :  0.59  176H :  0.58  298O :  0.57  418O :  0.57   22O :  0.56
  177H :  0.56  506H :  0.56  270H :  0.56  265O :  0.55   38H :  0.55   32H :  0.54   65H :  0.53  587H :  0.52  297H :  0.52   11H :  0.51   93H :  0.51  281H :  0.50
  330H :  0.50  167H :  0.50  661O :  0.48  639H :  0.48  370O :  0.47  432H :  0.47  513H :  0.46  592O :  0.46   73O :  0.45  559O :  0.45    4O :  0.45  668H :  0.44
  708H :  0.44  362H :  0.43  412O :  0.43   71H :  0.43  408H :  0.43  551H :  0.43  291H :  0.42  679O :  0.42  422H :  0.42  603H :  0.41  203H :  0.41  318H :  0.41
  119H :  0.41  429H :  0.41  339H :  0.40  214O :  0.40  702H :  0.39  654H :  0.38  404H :  0.38  323H :  0.37  605H :  0.37  482H :  0.37  545H :  0.37  647H :  0.36
   30H :  0.36  273H :  0.35  239H :  0.35   98H :  0.35  618H :  0.35  704H :  0.35   50H :  0.35  750H :  0.35  357H :  0.34  170H :  0.34  499O :  0.34  380H :  0.33
  184O :  0.33  726H :  0.33  465H :  0.33   87H :  0.33  410H :  0.33  365H :  0.32  548H :  0.32  491H :  0.32   95H :  0.31  591H :  0.31  383H :  0.31  600H :  0.31
  720H :  0.31  272H :  0.31  614H :  0.31  240H :  0.30  507H :  0.30  657H :  0.30  364O :  0.29  553O :  0.29  375H :  0.28  449H :  0.28  705H :  0.28  582H :  0.28
  611H :  0.28  216H :  0.27  470H :  0.27  377H :  0.27  390H :  0.26  359H :  0.26  467H :  0.26  687H :  0.26  336H :  0.26  212H :  0.26  536H :  0.25  721O :  0.25
  314H :  0.25  638H :  0.25  329H :  0.25  192H :  0.25  442O :  0.25  528H :  0.24  372H :  0.24  140H :  0.24  114H :  0.24  411H :  0.24  105H :  0.23  292O :  0.23
  288H :  0.23  458H :  0.23  477H :  0.23  471H :  0.23  540H :  0.22  476H :  0.22  107H :  0.22  456H :  0.22  242H :  0.21  332H :  0.21  455H :  0.21  612H :  0.21
  120H :  0.21  500H :  0.21  251H :  0.21  135H :  0.21  441H :  0.20  333H :  0.20  143H :  0.20  728H :  0.20  164H :  0.19  236H :  0.19   33H :  0.19  608H :  0.19
  159H :  0.19  594H :  0.19  351H :  0.18  222H :  0.18  574O :  0.18  134H :  0.18   24H :  0.17  374H :  0.17  534H :  0.17  743H :  0.17  741H :  0.17  636H :  0.17
  341H :  0.16  210H :  0.16  296H :  0.16  193O :  0.16  488H :  0.16  494H :  0.16  252H :  0.16  522H :  0.16  627H :  0.16  231H :  0.15  699H :  0.15  350H :  0.15
  680H :  0.15  413H :  0.14  386H :  0.14   41H :  0.14  402H :  0.14  563H :  0.14  353H :  0.14  734H :  0.14  626H :  0.13  219H :  0.13  399H :  0.13  363H :  0.13
  204H :  0.13  122H :  0.13  420H :  0.13  290H :  0.13  126H :  0.13  171H :  0.12  123H :  0.12  302H :  0.12  326H :  0.12  293H :  0.12  517O :  0.12   20H :  0.12
  509H :  0.12  729H :  0.12  230H :  0.12  189H :  0.12   69H :  0.12  345H :  0.12  228H :  0.11  261H :  0.11  716H :  0.11  233H :  0.11  621H :  0.11  431H :  0.11
  206H :  0.11  453H :  0.11  665H :  0.11  584H :  0.11  179H :  0.11  662H :  0.11  401H :  0.11  653H :  0.11  542H :  0.11  141H :  0.11  129H :  0.10  155H :  0.10
   81H :  0.10  183H :  0.10  243H :  0.10  146H :  0.10  317H :  0.10  224H :  0.10  642H :  0.10  381H :  0.10  620H :  0.10  147H :  0.10  101H :  0.10  489H :  0.10
  248H :  0.10  498H :  0.10   51H :  0.10  138H :  0.09  690H :  0.09   45H :  0.09  279H :  0.09  300H :  0.09  315H :  0.09  113H :  0.09  198H :  0.09  609H :  0.08
  447H :  0.08  663H :  0.08  275H :  0.08  173H :  0.08  659H :  0.08  321H :  0.08   54H :  0.08  510H :  0.08  416H :  0.08  117H :  0.08  197H :  0.08  629H :  0.08
  459H :  0.08  446H :  0.08  461H :  0.07  257H :  0.07  389H :  0.07  579H :  0.07  209H :  0.07  688O :  0.07  393H :  0.07  424O :  0.07  552H :  0.07   12H :  0.07
    4 LP   *******   0.00 -19.18084  -8.31153 -10.98689  493O : 15.57  100O : 13.62  139O : 13.47  169O : 12.78  487O : 11.62  244O : 11.51    7O : 11.35   28O : 11.12  745O : 10.97   10O : 10.50  544O : 10.23   67O :  9.86
   13O :  9.69  502O :  9.43  577O :  9.41  175O :  9.03  751O :  8.91  163O :  8.84  118O :  8.83   79O :  8.76  268O :  8.58  550O :  8.43  547O :  8.35  625O :  8.21
  154O :  8.20  157O :  8.16  133O :  7.97   19O :  7.93  148O :  7.91  478O :  7.83  373O :  7.79  316O :  7.58  541O :  7.58  376O :  7.49  670O :  7.08   40O :  7.07
  562O :  7.05  106O :  6.97  334O :  6.97  472O :  6.90  538O :  6.70  628O :  6.57   82O :  6.52   94O :  6.50  748O :  6.46  700O :  6.12  673O :  6.09  568O :  6.05
  238O :  5.94   55O :  5.88  457O :  5.76  508O :  5.69   85O :  5.59  166O :  5.59  382O :  5.58  115O :  5.56  160O :  5.41  637O :  5.36  535O :  5.19  709O :  5.17
  340O :  5.16  415O :  5.14  352O :  5.10  187O :  4.95  328O :  4.91  616O :  4.87  346O :  4.81   49O :  4.79  151O :  4.53  361O :  4.50  130O :  4.39  391O :  4.28
  235O :  4.28  199O :  4.27  619O :  4.23  514O :  4.22  103O :  4.18  271O :  4.12  754O :  4.11  145O :  4.07  379O :  4.04   97O :  4.04  280O :  3.98  703O :  3.93
  451O :  3.92   31O :  3.91  445O :  3.91  505O :  3.83  727O :  3.79  220O :  3.72  109O :  3.71  172O :  3.66  112O :  3.62  136O :  3.58    1O :  3.54  406O :  3.50
  256O :  3.49  601O :  3.47   70O :  3.46   34O :  3.44   25O :  3.42  448O :  3.39  409O :  3.35  658O :  3.34  310O :  3.32  466O :  3.29  307O :  3.26  247O :  3.24
  589O :  3.21   64O :  3.16  595O :  3.13  274O :  3.06  178O :  2.98  433O :  2.96  631O :  2.95  475O :  2.94   91O :  2.93  388O :  2.91  742O :  2.89  253O :  2.88
  226O :  2.88  202O :  2.86  394O :  2.85   37O :  2.83  604O :  2.83  295O :  2.82  439O :  2.82  460O :  2.82  259O :  2.79  640O :  2.77  205O :  2.75  427O :  2.68
  610O :  2.68  403O :  2.64  181O :  2.61  421O :  2.60   88O :  2.57  655O :  2.52  526O :  2.50  622O :  2.50  232O :  2.48  736O :  2.43  241O :  2.39  286O :  2.39
  319O :  2.39  430O :  2.38  580O :  2.36  652O :  2.34  229O :  2.34  646O :  2.31  598O :  2.30  676O :  2.29  484O :  2.28  667O :  2.28  322O :  2.25  481O :  2.22
  196O :  2.22  454O :  2.20  190O :  2.20   16O :  2.18  208O :  2.14  643O :  2.12   76O :  2.11   21H :  2.08  217O :  2.07  694O :  2.04   52O :  1.99  523O :  1.98
  706O :  1.97  712O :  1.92  289O :  1.85  337O :  1.80  436O :  1.79  532O :  1.79  349O :  1.77   46O :  1.73  718O :  1.72  301O :  1.69  469O :  1.68  520O :  1.64
   58O :  1.60  153H :  1.59  211O :  1.55   36H :  1.54  511O :  1.53  730O :  1.53  715O :  1.52  343O :  1.49   61O :  1.48  739O :  1.48  613O :  1.47  565O :  1.47
  150H :  1.46  607O :  1.44  304O :  1.40  685O :  1.38  331O :  1.37  283O :  1.36  463O :  1.34   43O :  1.30  724O :  1.29  583O :  1.27  385O :  1.25    8H :  1.24
  733O :  1.23  400O :  1.21  325O :  1.20  397O :  1.19  752H :  1.18  142O :  1.16  358O :  1.15  250O :  1.12  335H :  1.10  634O :  1.06  313O :  1.04  342H :  1.02
  347H :  1.01  367O :  1.01  277O :  1.00  697O :  0.98  473H :  0.96   63H :  0.96  586O :  0.95  539H :  0.95   90H :  0.94  682O :  0.88  571O :  0.87  127O :  0.87
  223O :  0.87  564H :  0.87  262O :  0.86  165H :  0.82  747H :  0.81  617H :  0.81  121O :  0.81  156H :  0.78  462H :  0.77  664O :  0.75  124O :  0.73  678H :  0.72
  556O :  0.71    3H :  0.71  569H :  0.71   42H :  0.70  546H :  0.70  529O :  0.68  191H :  0.68  630H :  0.66  691O :  0.66  649O :  0.65  355O :  0.64  254H :  0.63
  490O :  0.63  132H :  0.63  255H :  0.63  672H :  0.62   14H :  0.61  496O :  0.60  452H :  0.59  515H :  0.58  176H :  0.58  298O :  0.57  418O :  0.57  273H :  0.56
   22O :  0.56  177H :  0.55  270H :  0.55  506H :  0.55  265O :  0.55   38H :  0.55   32H :  0.54   65H :  0.53  587H :  0.52  297H :  0.52   11H :  0.51   93H :  0.50
  281H :  0.50  330H :  0.50  167H :  0.49  661O :  0.49  639H :  0.47  370O :  0.47  432H :  0.47  513H :  0.46  592O :  0.46   73O :  0.45  559O :  0.45    4O :  0.45
  668H :  0.43  708H :  0.43  119H :  0.43  545H :  0.43  362H :  0.43  412O :  0.43   71H :  0.42  408H :  0.42  551H :  0.42  291H :  0.42  679O :  0.42  422H :  0.41
  603H :  0.41  203H :  0.41  318H :  0.41  429H :  0.40  214O :  0.40  339H :  0.39  702H :  0.39  654H :  0.38  404H :  0.38  323H :  0.37  605H :  0.37  482H :  0.37
  647H :  0.36   30H :  0.36  239H :  0.35   98H :  0.35  618H :  0.35  704H :  0.35   50H :  0.35  750H :  0.34  357H :  0.34  170H :  0.33  499O :  0.33  380H :  0.33
  184O :  0.33  726H :  0.33  465H :  0.33   87H :  0.32  410H :  0.32  365H :  0.32  548H :  0.32  491H :  0.32  591H :  0.31   95H :  0.31  383H :  0.31  720H :  0.31
  614H :  0.30  272H :  0.30  140H :  0.30  240H :  0.30  507H :  0.30  657H :  0.29  600H :  0.29  364O :  0.29  553O :  0.29  528H :  0.29  375H :  0.28  449H :  0.28
  705H :  0.28  611H :  0.27  216H :  0.27  582H :  0.27  470H :  0.27  377H :  0.27  390H :  0.26  359H :  0.26  467H :  0.26  687H :  0.26  336H :  0.26  212H :  0.25
  536H :  0.25  721O :  0.25  314H :  0.25  638H :  0.25  329H :  0.25  192H :  0.25  442O :  0.25  372H :  0.24  114H :  0.24  411H :  0.23  120H :  0.23  105H :  0.23
  292O :  0.23  288H :  0.23  458H :  0.23  477H :  0.23  471H :  0.22  540H :  0.22  476H :  0.22  107H :  0.22  456H :  0.22  242H :  0.21  332H :  0.21  455H :  0.21
  612H :  0.21  500H :  0.21  251H :  0.21  135H :  0.20  441H :  0.20  333H :  0.20  143H :  0.20  728H :  0.20  164H :  0.19  236H :  0.19   33H :  0.19  608H :  0.19
  159H :  0.19  594H :  0.19  351H :  0.18  222H :  0.18  574O :  0.18  134H :  0.18   24H :  0.17  374H :  0.17  534H :  0.17  743H :  0.17  741H :  0.16  636H :  0.16
  341H :  0.16  210H :  0.16  488H :  0.16  296H :  0.16  193O :  0.16  252H :  0.16  494H :  0.16  522H :  0.16  627H :  0.16  231H :  0.15  699H :  0.15  350H :  0.15
  680H :  0.14  413H :  0.14  386H :  0.14   41H :  0.14  402H :  0.14  563H :  0.14  353H :  0.14  734H :  0.13  626H :  0.13  219H :  0.13  399H :  0.13  363H :  0.13
  204H :  0.13  122H :  0.13  420H :  0.13  290H :  0.13  126H :  0.13  171H :  0.12  123H :  0.12  302H :  0.12  326H :  0.12  293H :  0.12  517O :  0.12  509H :  0.12
   20H :  0.12  729H :  0.12  230H :  0.12  189H :  0.12   69H :  0.12  345H :  0.11  228H :  0.11  261H :  0.11  233H :  0.11  716H :  0.11  621H :  0.11  431H :  0.11
  206H :  0.11  453H :  0.11  665H :  0.11  584H :  0.11  179H :  0.11  401H :  0.11  653H :  0.11  662H :  0.11  542H :  0.11  129H :  0.10   81H :  0.10  155H :  0.10
  183H :  0.10  243H :  0.10  146H :  0.10  317H :  0.10  224H :  0.10  642H :  0.10  381H :  0.10  620H :  0.10  147H :  0.10  489H :  0.10  101H :  0.10  248H :  0.10
  498H :  0.10   51H :  0.09  138H :  0.09  690H :  0.09   45H :  0.09  279H :  0.09  300H :  0.09  315H :  0.09  113H :  0.09  663H :  0.09  198H :  0.08  609H :  0.08
  447H :  0.08  275H :  0.08  173H :  0.08  659H :  0.08  321H :  0.08   54H :  0.08  510H :  0.08  416H :  0.08  117H :  0.08  197H :  0.08  629H :  0.08  459H :  0.08
  446H :  0.08  461H :  0.07  257H :  0.07  389H :  0.07  579H :  0.07  209H :  0.07  688O :  0.07  393H :  0.07  424O :  0.07  552H :  0.07
    5 LP   *******   0.00  67.35629  26.19215 -14.18266  493O : 15.19  745O : 13.49  100O : 13.30  169O : 12.48  139O : 11.55  487O : 11.35  244O : 11.24    7O : 11.08   28O : 10.86   10O : 10.25  544O :  9.99   67O :  9.63
   13O :  9.47  502O :  9.21  577O :  9.19  175O :  8.82  751O :  8.71  163O :  8.63  118O :  8.58   79O :  8.56  268O :  8.38  550O :  8.24  547O :  8.15  625O :  8.02
  154O :  8.01  157O :  7.97  133O :  7.79   19O :  7.75  148O :  7.73  478O :  7.64  373O :  7.60  316O :  7.40  541O :  7.40  376O :  7.26  670O :  7.18   40O :  6.91
  562O :  6.88  334O :  6.80  106O :  6.80  472O :  6.74  538O :  6.54  628O :  6.41   82O :  6.37   94O :  6.35  748O :  6.31  700O :  5.97  673O :  5.94  568O :  5.91
  238O :  5.82   55O :  5.74  457O :  5.63  508O :  5.55   85O :  5.46  166O :  5.45  382O :  5.45  115O :  5.42  160O :  5.28  637O :  5.23  535O :  5.06  709O :  5.04
  340O :  5.04  415O :  5.02  352O :  4.98  187O :  4.83  328O :  4.79  616O :  4.76  346O :  4.69   49O :  4.68  151O :  4.42  361O :  4.39  235O :  4.30  130O :  4.29
  391O :  4.18  199O :  4.17  619O :  4.13  514O :  4.12  103O :  4.09  754O :  4.02  145O :  3.98  271O :  3.96  379O :  3.94   97O :  3.94  280O :  3.89  703O :  3.84
  451O :  3.83   31O :  3.82  445O :  3.82  505O :  3.74  727O :  3.70  220O :  3.64  109O :  3.63  172O :  3.57  112O :  3.54  136O :  3.49    1O :  3.46  406O :  3.42
  256O :  3.40  601O :  3.39   70O :  3.38   34O :  3.36   25O :  3.34  448O :  3.31  409O :  3.27  658O :  3.26  310O :  3.24  466O :  3.22  307O :  3.19  247O :  3.17
  589O :  3.13   64O :  3.09  595O :  3.06  274O :  2.99  178O :  2.91  631O :  2.89  433O :  2.89  475O :  2.87   91O :  2.87  460O :  2.85  388O :  2.84  742O :  2.83
  253O :  2.82  226O :  2.81  202O :  2.79  394O :  2.79   37O :  2.77  604O :  2.76  295O :  2.76  439O :  2.76  259O :  2.72  640O :  2.71  205O :  2.68  427O :  2.63
  610O :  2.62  403O :  2.58  181O :  2.54  421O :  2.54   88O :  2.51  655O :  2.46  526O :  2.45  622O :  2.44  232O :  2.42  736O :  2.37  241O :  2.33  319O :  2.33
  286O :  2.33  430O :  2.32  229O :  2.29  652O :  2.29  598O :  2.28  580O :  2.26  646O :  2.25  676O :  2.23  484O :  2.22  322O :  2.19  667O :  2.19  481O :  2.17
  196O :  2.17  454O :  2.15  190O :  2.15   16O :  2.12  208O :  2.09  643O :  2.07   76O :  2.06   21H :  2.03  217O :  2.03  694O :  2.00  706O :  1.94   52O :  1.94
  523O :  1.94  712O :  1.87  289O :  1.80  337O :  1.80  436O :  1.75  532O :  1.74  349O :  1.73   46O :  1.69  718O :  1.68  301O :  1.65  469O :  1.63  520O :  1.59
   58O :  1.57  153H :  1.55  211O :  1.51   36H :  1.51  511O :  1.50  715O :  1.49  730O :  1.49  343O :  1.45  739O :  1.44   61O :  1.44  613O :  1.43  565O :  1.43
  150H :  1.42  607O :  1.41  304O :  1.36  685O :  1.35  331O :  1.34  283O :  1.32  463O :  1.31   43O :  1.27  724O :  1.26  583O :  1.24  385O :  1.22    8H :  1.21
  733O :  1.20  400O :  1.18  325O :  1.17  397O :  1.17  752H :  1.16  142O :  1.14  358O :  1.13  250O :  1.09  335H :  1.07  634O :  1.04  313O :  1.02  342H :  0.99
  347H :  0.99  367O :  0.99  277O :  0.98  697O :  0.96   63H :  0.94  473H :  0.94  586O :  0.93  539H :  0.93   90H :  0.92  571O :  0.85  127O :  0.85  223O :  0.85
  564H :  0.85  262O :  0.84  165H :  0.81  682O :  0.80  617H :  0.79  121O :  0.79  156H :  0.76  462H :  0.75  664O :  0.73  124O :  0.71  556O :  0.71  678H :  0.70
    3H :  0.69  747H :  0.69  569H :  0.69   42H :  0.68  546H :  0.68  529O :  0.68  191H :  0.67  672H :  0.65  630H :  0.64  691O :  0.64  649O :  0.64  355O :  0.63
  254H :  0.62  490O :  0.61  132H :  0.61  255H :  0.61   14H :  0.59  496O :  0.59  452H :  0.57  515H :  0.57  176H :  0.56  298O :  0.55  418O :  0.55   22O :  0.54
  177H :  0.54  270H :  0.54  506H :  0.54  265O :  0.54   38H :  0.54   32H :  0.53   65H :  0.52  587H :  0.51  297H :  0.51   11H :  0.49   93H :  0.49  281H :  0.49
  330H :  0.48  167H :  0.48  661O :  0.46  639H :  0.46  370O :  0.46  432H :  0.46  513H :  0.45  592O :  0.45   73O :  0.44  559O :  0.44    4O :  0.44  668H :  0.43
  708H :  0.42  545H :  0.42  362H :  0.42  412O :  0.42   71H :  0.41  408H :  0.41  551H :  0.41  291H :  0.41  679O :  0.41  422H :  0.40  603H :  0.40  203H :  0.40
  318H :  0.40  119H :  0.40  429H :  0.40  339H :  0.39  214O :  0.39  702H :  0.38  654H :  0.37  404H :  0.37  323H :  0.36  605H :  0.36  482H :  0.36  647H :  0.35
   30H :  0.35  273H :  0.34   98H :  0.34  239H :  0.34  618H :  0.34  704H :  0.34   50H :  0.34  750H :  0.34  357H :  0.33  170H :  0.33  499O :  0.33  380H :  0.32
  184O :  0.32  726H :  0.32  465H :  0.32   87H :  0.32  410H :  0.32  548H :  0.31  365H :  0.31  491H :  0.31   95H :  0.30  591H :  0.30  383H :  0.30  600H :  0.30
  720H :  0.30  272H :  0.30  614H :  0.30  240H :  0.29  507H :  0.29  364O :  0.29  657H :  0.29  553O :  0.28  528H :  0.28  375H :  0.27  449H :  0.27  705H :  0.27
  582H :  0.27  611H :  0.27  216H :  0.26  470H :  0.26  390H :  0.26  359H :  0.26  377H :  0.25  687H :  0.25  467H :  0.25  336H :  0.25  212H :  0.25  536H :  0.25
  721O :  0.24  314H :  0.24  638H :  0.24  329H :  0.24  192H :  0.24  442O :  0.24  372H :  0.24  140H :  0.23  114H :  0.23  411H :  0.23  105H :  0.22  292O :  0.22
  288H :  0.22  458H :  0.22  477H :  0.22  471H :  0.22  476H :  0.22  107H :  0.22  540H :  0.22  456H :  0.21  242H :  0.21  332H :  0.21  612H :  0.20  455H :  0.20
  120H :  0.20  500H :  0.20  251H :  0.20  135H :  0.20  441H :  0.20  333H :  0.19  143H :  0.19  728H :  0.19  164H :  0.19  236H :  0.19  159H :  0.19   33H :  0.18
  608H :  0.18  594H :  0.18  351H :  0.18  222H :  0.18  574O :  0.17  134H :  0.17   24H :  0.17  374H :  0.17  534H :  0.17  341H :  0.17  743H :  0.16  741H :  0.16
  636H :  0.16  210H :  0.16  488H :  0.16  296H :  0.16  193O :  0.16  494H :  0.15  252H :  0.15  627H :  0.15  522H :  0.15  231H :  0.15  699H :  0.14  350H :  0.14
  680H :  0.14  413H :  0.14  386H :  0.14   41H :  0.14  402H :  0.13  563H :  0.13  353H :  0.13  734H :  0.13  626H :  0.13  219H :  0.13  399H :  0.13  363H :  0.13
  204H :  0.12  420H :  0.12  122H :  0.12  290H :  0.12  126H :  0.12  171H :  0.12  123H :  0.12  302H :  0.12  326H :  0.12  293H :  0.12  509H :  0.12  517O :  0.12
   20H :  0.12  729H :  0.11  189H :  0.11  230H :  0.11   69H :  0.11  345H :  0.11  228H :  0.11  261H :  0.11  716H :  0.11  233H :  0.11  621H :  0.11  431H :  0.11
  206H :  0.11  453H :  0.11  665H :  0.11  584H :  0.11  179H :  0.10  662H :  0.10  401H :  0.10  653H :  0.10  542H :  0.10  141H :  0.10  129H :  0.10   81H :  0.10
  155H :  0.10  183H :  0.10  243H :  0.10  146H :  0.10  317H :  0.10  224H :  0.10  642H :  0.10  381H :  0.10  620H :  0.10  147H :  0.09  489H :  0.09  101H :  0.09
  248H :  0.09  498H :  0.09   51H :  0.09  138H :  0.09  690H :  0.09   45H :  0.09  279H :  0.09  300H :  0.09  315H :  0.08  113H :  0.08  198H :  0.08  609H :  0.08
  447H :  0.08  663H :  0.08  275H :  0.08  173H :  0.08  659H :  0.08  321H :  0.08   54H :  0.08  510H :  0.08  416H :  0.08  117H :  0.08  378H :  0.08  197H :  0.08
  629H :  0.08  459H :  0.07  446H :  0.07  257H :  0.07  461H :  0.07  389H :  0.07  579H :  0.07  209H :  0.07
    6 LP   *******   0.00  24.42998  -2.78008 -32.89754  493O : 15.17  100O : 13.30  169O : 12.28  139O : 11.53  487O : 11.33  244O : 11.22    7O : 11.05   67O : 10.87   28O : 10.85  745O : 10.70   10O : 10.23  544O :  9.97
   13O :  9.45  502O :  9.20  577O :  9.18  175O :  8.83  751O :  8.70  163O :  8.62  118O :  8.57   79O :  8.55  268O :  8.37  550O :  8.22  547O :  8.14  625O :  8.01
  154O :  8.00  157O :  7.96  133O :  7.78  148O :  7.72   19O :  7.71  478O :  7.64  373O :  7.59  316O :  7.40  541O :  7.39  376O :  7.31  670O :  7.17   40O :  6.90
  562O :  6.87  106O :  6.80  334O :  6.79  472O :  6.73  538O :  6.53  628O :  6.41   82O :  6.36   94O :  6.34  748O :  6.27  700O :  5.97  673O :  5.94  568O :  5.90
  238O :  5.81   55O :  5.73  457O :  5.62  508O :  5.55   85O :  5.45  382O :  5.45  166O :  5.45  115O :  5.42  160O :  5.27  637O :  5.23  535O :  5.06  709O :  5.04
  340O :  5.03  415O :  5.01  352O :  4.98  187O :  4.83  328O :  4.80  616O :  4.76  346O :  4.69   49O :  4.67  151O :  4.41  361O :  4.39  235O :  4.29  130O :  4.28
  391O :  4.18  199O :  4.16  514O :  4.11  619O :  4.11  103O :  4.08  754O :  4.01  145O :  3.97  271O :  3.95  379O :  3.94   97O :  3.93  280O :  3.88  703O :  3.83
  451O :  3.82   31O :  3.82  445O :  3.81  505O :  3.73  727O :  3.70  220O :  3.63  109O :  3.62  172O :  3.57  112O :  3.54  136O :  3.49    1O :  3.45  406O :  3.42
  256O :  3.40  601O :  3.38   70O :  3.37   34O :  3.36   25O :  3.32  448O :  3.31  409O :  3.27  658O :  3.26  310O :  3.24  466O :  3.21  247O :  3.16  589O :  3.13
   64O :  3.09  595O :  3.05  307O :  3.03  274O :  2.98  178O :  2.90  631O :  2.89  433O :  2.89  475O :  2.86   91O :  2.86  388O :  2.84  742O :  2.82  253O :  2.81
  226O :  2.81  202O :  2.79  394O :  2.78   37O :  2.76  604O :  2.76  295O :  2.75  439O :  2.75  460O :  2.75  259O :  2.72  640O :  2.70  205O :  2.68  610O :  2.62
  427O :  2.62   88O :  2.62  403O :  2.58  181O :  2.54  421O :  2.54  655O :  2.45  526O :  2.45  622O :  2.44  232O :  2.41  736O :  2.37  241O :  2.33  319O :  2.33
  286O :  2.32  430O :  2.32  652O :  2.29  229O :  2.28  598O :  2.28  580O :  2.26  646O :  2.25  676O :  2.23  484O :  2.22  322O :  2.19  667O :  2.19  481O :  2.17
  196O :  2.16  454O :  2.14  190O :  2.13   16O :  2.12  208O :  2.09  643O :  2.06   21H :  2.06   76O :  2.05  217O :  2.02  694O :  2.00   52O :  1.94  523O :  1.93
  706O :  1.92  712O :  1.87  289O :  1.80  337O :  1.80  436O :  1.75  532O :  1.74  349O :  1.73   46O :  1.68  718O :  1.68  301O :  1.65  469O :  1.63  520O :  1.60
   58O :  1.56  153H :  1.55  211O :  1.51   36H :  1.50  511O :  1.49  730O :  1.49  715O :  1.49  343O :  1.45  739O :  1.44   61O :  1.43  613O :  1.43  565O :  1.43
  150H :  1.42  607O :  1.41  304O :  1.36  685O :  1.35  331O :  1.34  283O :  1.32  463O :  1.31   43O :  1.26  724O :  1.26  583O :  1.24  385O :  1.22    8H :  1.21
  733O :  1.20  400O :  1.18  325O :  1.17   90H :  1.16  397O :  1.16  752H :  1.15  142O :  1.13  358O :  1.13  250O :  1.09  335H :  1.07  634O :  1.04  313O :  1.02
  342H :  0.99  347H :  0.99  367O :  0.99  277O :  0.98  697O :  0.96  473H :  0.94   63H :  0.94  586O :  0.93  539H :  0.93  682O :  0.86  571O :  0.85  223O :  0.85
  127O :  0.85  564H :  0.85  262O :  0.84  165H :  0.81  121O :  0.79  747H :  0.79  617H :  0.79  156H :  0.76  462H :  0.75  664O :  0.73  124O :  0.71  678H :  0.70
  556O :  0.69    3H :  0.69  569H :  0.69   42H :  0.68  546H :  0.68  529O :  0.67  191H :  0.66  672H :  0.64  630H :  0.64  691O :  0.64  649O :  0.64  355O :  0.63
  254H :  0.61  490O :  0.61  132H :  0.61  255H :  0.61   14H :  0.59  496O :  0.59  452H :  0.57  515H :  0.57  176H :  0.56  298O :  0.55  418O :  0.55   22O :  0.55
  177H :  0.54  270H :  0.54  506H :  0.54  265O :  0.54   38H :  0.54   32H :  0.53   65H :  0.52  587H :  0.51  297H :  0.50   11H :  0.49   93H :  0.49  281H :  0.49
  330H :  0.48  167H :  0.48  661O :  0.46  639H :  0.46  370O :  0.46  432H :  0.45  513H :  0.45  592O :  0.45   73O :  0.44  559O :  0.44    4O :  0.44  668H :  0.43
  708H :  0.42  545H :  0.42  362H :  0.42  412O :  0.41   71H :  0.41  408H :  0.41  551H :  0.41  291H :  0.41  679O :  0.41  422H :  0.40  603H :  0.40  203H :  0.40
  318H :  0.40  119H :  0.40  429H :  0.39  339H :  0.39  214O :  0.39  702H :  0.38  654H :  0.37  404H :  0.37  323H :  0.36  605H :  0.36  482H :  0.36  647H :  0.35
   30H :  0.35  273H :  0.34  239H :  0.34   98H :  0.34  618H :  0.34  704H :  0.34   50H :  0.34  750H :  0.34  357H :  0.33  170H :  0.33  499O :  0.33  380H :  0.32
  184O :  0.32  726H :  0.32  465H :  0.32   87H :  0.32  410H :  0.32  365H :  0.31  548H :  0.31  491H :  0.31  591H :  0.30   95H :  0.30  383H :  0.30  600H :  0.30
  720H :  0.30  272H :  0.30  614H :  0.30  240H :  0.29  507H :  0.29  657H :  0.29  364O :  0.28  553O :  0.28  528H :  0.28  375H :  0.27  449H :  0.27  582H :  0.27
  611H :  0.27  216H :  0.26  705H :  0.26  470H :  0.26  377H :  0.26  390H :  0.26  359H :  0.26  467H :  0.25  687H :  0.25  336H :  0.25  212H :  0.25  536H :  0.25
  192H :  0.24  721O :  0.24  314H :  0.24  638H :  0.24  329H :  0.24  442O :  0.24  372H :  0.23  140H :  0.23  114H :  0.23  411H :  0.23  105H :  0.22  292O :  0.22
  288H :  0.22  458H :  0.22  477H :  0.22  471H :  0.22  540H :  0.22  476H :  0.22  107H :  0.22  456H :  0.21  242H :  0.21  332H :  0.21  455H :  0.20  612H :  0.20
  120H :  0.20  500H :  0.20  251H :  0.20  135H :  0.20  441H :  0.20  333H :  0.19  143H :  0.19  728H :  0.19  164H :  0.19  236H :  0.19   33H :  0.18  608H :  0.18
  159H :  0.18  594H :  0.18  351H :  0.18  222H :  0.18   24H :  0.17  574O :  0.17  134H :  0.17  374H :  0.17  534H :  0.17  743H :  0.16  741H :  0.16  636H :  0.16
  341H :  0.16  210H :  0.16  488H :  0.16  296H :  0.16  193O :  0.16  494H :  0.15  252H :  0.15  522H :  0.15  627H :  0.15  231H :  0.15  699H :  0.14  350H :  0.14
  680H :  0.14  413H :  0.14  386H :  0.14   41H :  0.14  402H :  0.13  563H :  0.13  353H :  0.13  734H :  0.13  626H :  0.13  219H :  0.13  399H :  0.13  363H :  0.13
  171H :  0.12  204H :  0.12  122H :  0.12  420H :  0.12  290H :  0.12  126H :  0.12  302H :  0.12  326H :  0.12  123H :  0.12  293H :  0.12  517O :  0.12  509H :  0.12
  729H :  0.11   20H :  0.11  189H :  0.11  230H :  0.11  345H :  0.11  228H :  0.11  261H :  0.11  621H :  0.11  716H :  0.11  233H :  0.11  431H :  0.11  206H :  0.11
  453H :  0.11  665H :  0.11  584H :  0.10  179H :  0.10  662H :  0.10  401H :  0.10  653H :  0.10  542H :  0.10  141H :  0.10  129H :  0.10   81H :  0.10  155H :  0.10
  183H :  0.10  243H :  0.10  146H :  0.10  317H :  0.10  224H :  0.10  642H :  0.10  381H :  0.10  620H :  0.10  147H :  0.09  489H :  0.09  101H :  0.09  248H :  0.09
  498H :  0.09   51H :  0.09  138H :  0.09  690H :  0.09   45H :  0.09  279H :  0.09  300H :  0.09  315H :  0.08  113H :  0.08  198H :  0.08  609H :  0.08  447H :  0.08
  663H :  0.08  275H :  0.08  173H :  0.08  659H :  0.08  321H :  0.08   54H :  0.08  510H :  0.08  416H :  0.08  117H :  0.08  197H :  0.08  629H :  0.08  459H :  0.07
  446H :  0.07  461H :  0.07  257H :  0.07  389H :  0.07  579H :  0.07  209H :  0.07
    7 LP   *******   0.00  22.88787  39.96238 -52.99178  493O : 14.10  100O : 12.34   28O : 12.25  169O : 11.58  139O : 10.71  487O : 10.53  244O : 10.43    7O : 10.29  745O :  9.94   10O :  9.51  544O :  9.27   67O :  8.93
   13O :  8.78  502O :  8.55  577O :  8.53  175O :  8.17  751O :  8.09  163O :  8.01  118O :  7.97   79O :  7.94  268O :  7.78  550O :  7.64  547O :  7.57  625O :  7.44
  154O :  7.43  157O :  7.39  133O :  7.23   19O :  7.19  478O :  7.09  148O :  7.08  373O :  7.06  316O :  6.87  541O :  6.87  376O :  6.79  670O :  6.66   40O :  6.41
  562O :  6.39  106O :  6.32  334O :  6.32  472O :  6.26  538O :  6.07  628O :  5.95   82O :  5.91   94O :  5.89  748O :  5.85  700O :  5.54  673O :  5.52  568O :  5.49
  238O :  5.40   55O :  5.33  457O :  5.22  508O :  5.16   85O :  5.06  382O :  5.06  166O :  5.06  115O :  5.03  160O :  4.98  637O :  4.86  535O :  4.70  709O :  4.68
  340O :  4.68  415O :  4.65  352O :  4.62  187O :  4.48  328O :  4.44  616O :  4.42  346O :  4.36   49O :  4.34  151O :  4.11  361O :  4.03  235O :  3.99  130O :  3.98
  391O :  3.88  199O :  3.87  619O :  3.84  514O :  3.82  103O :  3.79  754O :  3.73  145O :  3.69  271O :  3.67  379O :  3.66   97O :  3.66  280O :  3.61  703O :  3.56
  451O :  3.55   31O :  3.54  445O :  3.54  505O :  3.47  727O :  3.44  109O :  3.37  220O :  3.37  172O :  3.31  112O :  3.28  136O :  3.24  256O :  3.22    1O :  3.21
  406O :  3.17   34O :  3.14  601O :  3.13   70O :  3.11   25O :  3.10  448O :  3.07  409O :  3.03  658O :  3.03  310O :  3.01  466O :  2.98  307O :  2.96  247O :  2.94
  589O :  2.91   64O :  2.87  595O :  2.84  274O :  2.77  178O :  2.70  433O :  2.69  631O :  2.68  475O :  2.66   91O :  2.66  388O :  2.64  742O :  2.62  253O :  2.61
  226O :  2.61  394O :  2.59   37O :  2.57  604O :  2.57  439O :  2.56  295O :  2.56  460O :  2.56  202O :  2.55  259O :  2.53  640O :  2.51  205O :  2.49  610O :  2.43
  427O :  2.43  403O :  2.39  181O :  2.36  421O :  2.36  655O :  2.35   88O :  2.33  526O :  2.27  622O :  2.26  232O :  2.24  736O :  2.20  241O :  2.16  319O :  2.16
  286O :  2.16  430O :  2.15  652O :  2.12  229O :  2.12  598O :  2.12  580O :  2.10  646O :  2.09  676O :  2.07  484O :  2.06  322O :  2.04  667O :  2.03  481O :  2.02
  196O :  2.01  454O :  2.00  190O :  1.99   16O :  1.97  208O :  1.94  643O :  1.92   76O :  1.91   21H :  1.88  217O :  1.88  694O :  1.86   52O :  1.80  523O :  1.80
  706O :  1.78  712O :  1.74  289O :  1.67  337O :  1.67  436O :  1.62  532O :  1.62  349O :  1.61  718O :  1.56   46O :  1.55  301O :  1.53  469O :  1.52  520O :  1.48
   58O :  1.45  153H :  1.44   36H :  1.40  211O :  1.40  511O :  1.39  730O :  1.38  715O :  1.38  343O :  1.35  739O :  1.34  150H :  1.34   61O :  1.34  565O :  1.33
  613O :  1.33  607O :  1.31  304O :  1.26  685O :  1.25  331O :  1.24  283O :  1.23  463O :  1.22  724O :  1.17   43O :  1.17  583O :  1.15  385O :  1.13    8H :  1.13
  733O :  1.12  400O :  1.09  325O :  1.09  397O :  1.08  752H :  1.07  142O :  1.05  358O :  1.05  250O :  1.01  335H :  1.00  634O :  0.96  313O :  0.95  342H :  0.92
  347H :  0.92  367O :  0.92  277O :  0.91  697O :  0.89   63H :  0.87  473H :  0.87  586O :  0.86  539H :  0.86   90H :  0.86  682O :  0.80  571O :  0.79  127O :  0.79
  223O :  0.79  564H :  0.79  262O :  0.78  165H :  0.75  747H :  0.74  617H :  0.73  121O :  0.73  156H :  0.70  462H :  0.69  664O :  0.68  124O :  0.66  678H :  0.65
  556O :  0.64    3H :  0.64  569H :  0.64   42H :  0.63  546H :  0.63  191H :  0.62  529O :  0.62  672H :  0.60  630H :  0.60  691O :  0.60  649O :  0.59  355O :  0.58
  254H :  0.57  490O :  0.57  132H :  0.57  255H :  0.57   14H :  0.55  496O :  0.55  452H :  0.53  515H :  0.53  176H :  0.52  298O :  0.51  418O :  0.51   22O :  0.50
  270H :  0.50  177H :  0.50  506H :  0.50  265O :  0.50   38H :  0.50   32H :  0.49   65H :  0.48  587H :  0.47  297H :  0.47   11H :  0.46   93H :  0.46  281H :  0.45
  330H :  0.45  167H :  0.45   71H :  0.44  661O :  0.43  639H :  0.43  370O :  0.42  432H :  0.42  513H :  0.42  592O :  0.42   73O :  0.41  559O :  0.41    4O :  0.40
  668H :  0.40  708H :  0.39  545H :  0.39  412O :  0.39  408H :  0.39  551H :  0.38  362H :  0.38  291H :  0.38  679O :  0.38  422H :  0.37  603H :  0.37  318H :  0.37
  119H :  0.37  429H :  0.37  339H :  0.36  214O :  0.36  702H :  0.35  203H :  0.35  654H :  0.35  404H :  0.35  323H :  0.33  605H :  0.33  482H :  0.33  647H :  0.33
  273H :  0.32   98H :  0.32  239H :  0.32  618H :  0.32  704H :  0.32   50H :  0.31  750H :  0.31  357H :  0.31  170H :  0.30  499O :  0.30  380H :  0.30  184O :  0.30
  726H :  0.30  465H :  0.30   87H :  0.29  410H :  0.29  365H :  0.29  548H :  0.29  491H :  0.29  591H :  0.28   95H :  0.28  383H :  0.28  600H :  0.28  720H :  0.28
  272H :  0.28  614H :  0.28  240H :  0.27  507H :  0.27   30H :  0.27  364O :  0.26  657H :  0.26  553O :  0.26  528H :  0.26  375H :  0.25  449H :  0.25  705H :  0.25
  582H :  0.25  611H :  0.25  216H :  0.24  470H :  0.24  377H :  0.24  390H :  0.24  359H :  0.24  467H :  0.23  687H :  0.23  336H :  0.23  212H :  0.23  536H :  0.23
  721O :  0.23  314H :  0.22  638H :  0.22  329H :  0.22  192H :  0.22  442O :  0.22  372H :  0.22  140H :  0.22  114H :  0.21  411H :  0.21  105H :  0.21  292O :  0.21
  288H :  0.21  458H :  0.21  477H :  0.21  471H :  0.20  540H :  0.20  476H :  0.20  107H :  0.20  456H :  0.20  242H :  0.19  332H :  0.19  612H :  0.19  455H :  0.19
  120H :  0.19  500H :  0.19  251H :  0.19  135H :  0.19  441H :  0.18  333H :  0.18  143H :  0.18  728H :  0.18  164H :  0.17  236H :  0.17   33H :  0.17  608H :  0.17
  159H :  0.17  594H :  0.17  351H :  0.17  222H :  0.16  574O :  0.16  134H :  0.16   24H :  0.16  374H :  0.16  534H :  0.15  743H :  0.15  741H :  0.15  636H :  0.15
  341H :  0.15  210H :  0.15  488H :  0.15  296H :  0.15  193O :  0.14  494H :  0.14  252H :  0.14  522H :  0.14  627H :  0.14  231H :  0.14  699H :  0.13  350H :  0.13
  680H :  0.13  413H :  0.13  386H :  0.13   41H :  0.13  402H :  0.12  563H :  0.12  353H :  0.12  734H :  0.12  626H :  0.12  219H :  0.12  399H :  0.12  122H :  0.11
  420H :  0.11  290H :  0.11  126H :  0.11  204H :  0.11  171H :  0.11  363H :  0.11  123H :  0.11  302H :  0.11  326H :  0.11  293H :  0.11  517O :  0.11   20H :  0.11
  509H :  0.11  729H :  0.11  189H :  0.11  230H :  0.11   69H :  0.10  345H :  0.10  261H :  0.10  228H :  0.10  716H :  0.10  233H :  0.10  621H :  0.10  206H :  0.10
  431H :  0.10  453H :  0.10  665H :  0.10  584H :  0.10  179H :  0.10  662H :  0.10  401H :  0.10  653H :  0.10  542H :  0.10  141H :  0.10  129H :  0.09   81H :  0.09
  155H :  0.09  183H :  0.09  243H :  0.09  146H :  0.09  317H :  0.09  224H :  0.09  642H :  0.09  381H :  0.09  620H :  0.09  147H :  0.09  489H :  0.09  101H :  0.09
  248H :  0.09  498H :  0.09   51H :  0.09  138H :  0.09  690H :  0.08  279H :  0.08   45H :  0.08  300H :  0.08  315H :  0.08  113H :  0.08  198H :  0.08  609H :  0.08
  447H :  0.08  663H :  0.08  275H :  0.08  173H :  0.08  659H :  0.08  257H :  0.07  321H :  0.07   54H :  0.07  510H :  0.07  416H :  0.07  117H :  0.07  197H :  0.07
    8 LP   *******   0.00 -15.58644  57.09043 -28.40618  493O : 13.30  244O : 12.01  100O : 11.65  169O : 10.93  139O : 10.11  487O :  9.94    7O :  9.71   28O :  9.51  745O :  9.38   10O :  8.97  544O :  8.75   67O :  8.43
   13O :  8.29  502O :  8.06  577O :  8.05  175O :  7.72  751O :  7.63  163O :  7.56  118O :  7.52   79O :  7.49  268O :  7.34  550O :  7.21  547O :  7.14  625O :  7.02
  154O :  7.01  157O :  6.98  133O :  6.82   19O :  6.78  148O :  6.77  478O :  6.69  373O :  6.66  316O :  6.49  541O :  6.48  376O :  6.40  670O :  6.29  562O :  6.03
   40O :  6.03  106O :  5.96  334O :  5.96  472O :  5.90  538O :  5.73  628O :  5.62   82O :  5.58   94O :  5.56  748O :  5.52  700O :  5.23  673O :  5.21  568O :  5.18
  238O :  5.10   55O :  5.03  457O :  4.93  508O :  4.87   85O :  4.78  382O :  4.77  166O :  4.77  115O :  4.75  160O :  4.62  637O :  4.58  535O :  4.43  709O :  4.42
  340O :  4.41  415O :  4.39  352O :  4.36  187O :  4.23  328O :  4.20  616O :  4.17  346O :  4.11   49O :  4.09  151O :  3.87  361O :  3.85  235O :  3.76  130O :  3.76
  391O :  3.66  199O :  3.65  619O :  3.62  514O :  3.61  103O :  3.58  754O :  3.52  145O :  3.48  271O :  3.46  379O :  3.45   97O :  3.45  280O :  3.40  703O :  3.36
  451O :  3.35   31O :  3.34  445O :  3.34  505O :  3.27  727O :  3.24  220O :  3.18  109O :  3.14  172O :  3.13  112O :  3.11  136O :  3.07    1O :  3.03  406O :  2.99
  256O :  2.98  601O :  2.97   70O :  2.96   34O :  2.94   25O :  2.93  448O :  2.90  409O :  2.86  658O :  2.86  310O :  2.84  247O :  2.82  466O :  2.82  307O :  2.79
  589O :  2.74   64O :  2.70  595O :  2.68  274O :  2.62  178O :  2.55  631O :  2.53  433O :  2.53  475O :  2.51   91O :  2.51  388O :  2.49  742O :  2.47  253O :  2.47
  226O :  2.46  202O :  2.44  394O :  2.44   37O :  2.42  604O :  2.42  439O :  2.41  295O :  2.41  460O :  2.41  259O :  2.38  640O :  2.37  205O :  2.35  610O :  2.30
  427O :  2.30  403O :  2.26  181O :  2.23  421O :  2.22   88O :  2.20  655O :  2.15  526O :  2.14  622O :  2.14  232O :  2.12  736O :  2.08  319O :  2.04  286O :  2.04
  430O :  2.03  652O :  2.00  229O :  2.00  598O :  2.00  241O :  2.00  580O :  1.98  646O :  1.97  676O :  1.96  484O :  1.95  322O :  1.93  667O :  1.92  481O :  1.90
  196O :  1.90  454O :  1.88  190O :  1.88   16O :  1.86  208O :  1.83  643O :  1.81   76O :  1.80   21H :  1.78  217O :  1.77  694O :  1.75   52O :  1.70  523O :  1.70
  706O :  1.68  712O :  1.64  289O :  1.58  337O :  1.57  436O :  1.53  532O :  1.53  349O :  1.51   46O :  1.48  718O :  1.47  301O :  1.44  469O :  1.43  520O :  1.40
   58O :  1.37  153H :  1.36  211O :  1.32   36H :  1.32  511O :  1.31  730O :  1.30  715O :  1.30  343O :  1.27  739O :  1.26   61O :  1.26  613O :  1.26  565O :  1.25
  150H :  1.25  607O :  1.23  304O :  1.19  685O :  1.18  331O :  1.17  283O :  1.16  463O :  1.15   43O :  1.11  724O :  1.10  583O :  1.08  385O :  1.07    8H :  1.06
  733O :  1.05  400O :  1.03  325O :  1.03  397O :  1.02  752H :  1.01  142O :  0.99  358O :  0.99  250O :  0.96  335H :  0.94  634O :  0.91  313O :  0.89  342H :  0.87
  347H :  0.86  367O :  0.86  277O :  0.85  697O :  0.84   63H :  0.83  473H :  0.82  586O :  0.81  539H :  0.81   90H :  0.81  682O :  0.75  571O :  0.75  127O :  0.75
  223O :  0.75  564H :  0.74  262O :  0.74  165H :  0.71  747H :  0.69  617H :  0.69  121O :  0.69  156H :  0.66  462H :  0.66  664O :  0.64  124O :  0.63  678H :  0.61
  556O :  0.61    3H :  0.60  569H :  0.60   42H :  0.60  546H :  0.59  191H :  0.58  529O :  0.58  672H :  0.57  630H :  0.57  691O :  0.56  649O :  0.56  355O :  0.55
  490O :  0.54  254H :  0.54  132H :  0.54  255H :  0.54   14H :  0.52  496O :  0.52  452H :  0.50  515H :  0.50  176H :  0.49  298O :  0.49  418O :  0.48   22O :  0.48
  177H :  0.47  270H :  0.47  506H :  0.47  265O :  0.47   38H :  0.47   32H :  0.46   65H :  0.45  587H :  0.44  297H :  0.44   11H :  0.43   93H :  0.43  281H :  0.43
  330H :  0.42  167H :  0.42  661O :  0.41  639H :  0.40  370O :  0.40  432H :  0.40  513H :  0.39  592O :  0.39   73O :  0.38  559O :  0.38    4O :  0.38  668H :  0.37
  708H :  0.37  545H :  0.37  362H :  0.36  412O :  0.36   71H :  0.36  408H :  0.36  551H :  0.36  291H :  0.36  679O :  0.36  422H :  0.35  603H :  0.35  203H :  0.35
  318H :  0.35  119H :  0.35  429H :  0.35  339H :  0.34  214O :  0.34  702H :  0.33  654H :  0.33  404H :  0.33  323H :  0.32  482H :  0.31  605H :  0.31  647H :  0.31
   30H :  0.31  273H :  0.30  239H :  0.30   98H :  0.30  618H :  0.30  704H :  0.30   50H :  0.30  750H :  0.29  357H :  0.29  170H :  0.29  499O :  0.29  380H :  0.28
  184O :  0.28  726H :  0.28  465H :  0.28   87H :  0.28  410H :  0.28  491H :  0.28  365H :  0.27  548H :  0.27   95H :  0.27  591H :  0.27  383H :  0.26  600H :  0.26
  720H :  0.26  272H :  0.26  614H :  0.26  240H :  0.26  507H :  0.26  657H :  0.25  364O :  0.25  553O :  0.25  528H :  0.25  375H :  0.24  449H :  0.24  705H :  0.24
  582H :  0.24  611H :  0.23  216H :  0.23  470H :  0.23  377H :  0.23  390H :  0.23  359H :  0.22  467H :  0.22  687H :  0.22  336H :  0.22  212H :  0.22  536H :  0.22
  292O :  0.21  721O :  0.21  314H :  0.21  638H :  0.21  329H :  0.21  192H :  0.21  442O :  0.21  372H :  0.21  140H :  0.21  114H :  0.20  411H :  0.20  105H :  0.20
  288H :  0.19  477H :  0.19  458H :  0.19  471H :  0.19  540H :  0.19  476H :  0.19  107H :  0.19  456H :  0.19  332H :  0.18  612H :  0.18  455H :  0.18  120H :  0.18
  500H :  0.18  251H :  0.18  135H :  0.18  441H :  0.17  333H :  0.17  143H :  0.17  728H :  0.17  164H :  0.16  236H :  0.16   33H :  0.16  608H :  0.16  159H :  0.16
  594H :  0.16  351H :  0.16  222H :  0.15  574O :  0.15  134H :  0.15   24H :  0.15  374H :  0.15  534H :  0.15  743H :  0.14  741H :  0.14  636H :  0.14  341H :  0.14
  210H :  0.14  488H :  0.14  193O :  0.14  296H :  0.14  494H :  0.14  252H :  0.14  522H :  0.13  627H :  0.13  231H :  0.13  699H :  0.13  242H :  0.13  350H :  0.13
  680H :  0.12  413H :  0.12  386H :  0.12   41H :  0.12  402H :  0.12  563H :  0.12  353H :  0.12  734H :  0.11  626H :  0.11  219H :  0.11  399H :  0.11  363H :  0.11
  204H :  0.11  122H :  0.11  420H :  0.11  290H :  0.11  126H :  0.11  171H :  0.11  123H :  0.11  302H :  0.10  326H :  0.10  293H :  0.10  517O :  0.10  509H :  0.10
   20H :  0.10  113H :  0.10  729H :  0.10  230H :  0.10  189H :  0.10   69H :  0.10  345H :  0.10  228H :  0.10  261H :  0.10  233H :  0.10  716H :  0.10  621H :  0.10
  206H :  0.09  431H :  0.09  453H :  0.09  665H :  0.09  584H :  0.09  179H :  0.09  662H :  0.09  401H :  0.09  653H :  0.09  542H :  0.09  141H :  0.09  129H :  0.09
   81H :  0.09  243H :  0.09  155H :  0.09  183H :  0.09  146H :  0.09  317H :  0.09  224H :  0.09  642H :  0.08  248H :  0.08  381H :  0.08  620H :  0.08  147H :  0.08
  489H :  0.08  101H :  0.08  498H :  0.08   51H :  0.08  138H :  0.08  690H :  0.08   45H :  0.08  279H :  0.08  300H :  0.07  315H :  0.07  198H :  0.07  609H :  0.07
  447H :  0.07  663H :  0.07  275H :  0.07  173H :  0.07  659H :  0.07  321H :  0.07
    9 LP   *******   0.00  18.24496  14.21068 -44.15569  493O : 12.86  100O : 11.26    7O : 10.60  169O : 10.56  139O :  9.78  487O :  9.61  244O :  9.52   28O :  9.20  745O :  9.07   10O :  8.67  544O :  8.46   67O :  8.14
   13O :  8.01  502O :  7.80  577O :  7.78  175O :  7.42  751O :  7.38  163O :  7.31  118O :  7.27   79O :  7.25  268O :  7.10  550O :  6.97  547O :  6.90  625O :  6.79
  154O :  6.78  157O :  6.75  133O :  6.59  148O :  6.56   19O :  6.54  478O :  6.47  373O :  6.44  316O :  6.27  541O :  6.27  376O :  6.19  670O :  6.08   40O :  5.85
  106O :  5.76  334O :  5.76  472O :  5.71  562O :  5.67  538O :  5.54  628O :  5.43   82O :  5.39   94O :  5.38  748O :  5.33  700O :  5.06  673O :  5.04  568O :  5.01
  238O :  4.93   55O :  4.86  457O :  4.76  508O :  4.71  382O :  4.62  166O :  4.62   85O :  4.61  115O :  4.59  160O :  4.47  637O :  4.43  535O :  4.29  709O :  4.27
  340O :  4.27  415O :  4.25  352O :  4.22  328O :  4.11  187O :  4.08  616O :  4.03  346O :  3.97   49O :  3.96  151O :  3.75  361O :  3.72  235O :  3.64  130O :  3.63
  391O :  3.54  199O :  3.53  619O :  3.50  514O :  3.49  103O :  3.46  754O :  3.40  145O :  3.37  271O :  3.35  379O :  3.34   97O :  3.34  280O :  3.29  703O :  3.25
  451O :  3.24  445O :  3.23   31O :  3.23  505O :  3.16  727O :  3.13  220O :  3.08  109O :  3.07  172O :  3.02  112O :  3.00  136O :  2.96    1O :  2.93  406O :  2.90
  601O :  2.88  256O :  2.88   70O :  2.86   34O :  2.86   25O :  2.83  448O :  2.80  658O :  2.76  409O :  2.76  310O :  2.74  466O :  2.72  307O :  2.70  247O :  2.68
  589O :  2.65   64O :  2.61  595O :  2.59  274O :  2.53  178O :  2.46  631O :  2.45  433O :  2.45  475O :  2.43   91O :  2.42  388O :  2.41  742O :  2.39  253O :  2.38
  226O :  2.38  202O :  2.36  394O :  2.36   37O :  2.34  604O :  2.34  295O :  2.33  439O :  2.33  460O :  2.33  259O :  2.31  640O :  2.29  205O :  2.27  610O :  2.22
  427O :  2.22  403O :  2.19  181O :  2.15  421O :  2.15   88O :  2.15  655O :  2.08  526O :  2.07  622O :  2.06  232O :  2.05  736O :  2.01  241O :  1.97  319O :  1.97
  286O :  1.97  430O :  1.97  229O :  1.94  652O :  1.94  598O :  1.93  580O :  1.92  646O :  1.91  676O :  1.89  484O :  1.88  322O :  1.86  667O :  1.86  481O :  1.84
  196O :  1.83  190O :  1.82  454O :  1.82   16O :  1.80  208O :  1.77  643O :  1.75   76O :  1.74  217O :  1.71   21H :  1.70  694O :  1.69   52O :  1.64  523O :  1.64
  706O :  1.63  712O :  1.59  289O :  1.53  337O :  1.52  436O :  1.48  532O :  1.48  349O :  1.47  718O :  1.42   46O :  1.41  301O :  1.40  469O :  1.38  520O :  1.35
   58O :  1.33  153H :  1.31   36H :  1.29  211O :  1.28  511O :  1.27  730O :  1.26  715O :  1.26  343O :  1.23  739O :  1.22   61O :  1.22  613O :  1.21  565O :  1.21
  150H :  1.20  607O :  1.19  304O :  1.15  685O :  1.14  331O :  1.13  283O :  1.12  463O :  1.11   43O :  1.07  724O :  1.07  583O :  1.05  385O :  1.04  733O :  1.02
  400O :  1.00  325O :  0.99  397O :  0.99  752H :  0.98  142O :  0.96  358O :  0.95  250O :  0.92  335H :  0.91  634O :  0.88  313O :  0.86  342H :  0.84    8H :  0.84
  347H :  0.84  367O :  0.84  277O :  0.83  697O :  0.81   63H :  0.80  473H :  0.80  586O :  0.79  539H :  0.78   90H :  0.77  682O :  0.73  127O :  0.73  223O :  0.72
  571O :  0.72  262O :  0.72  564H :  0.70  165H :  0.68  747H :  0.67  617H :  0.67  121O :  0.67  156H :  0.64  462H :  0.63  664O :  0.62  124O :  0.60  678H :  0.59
  556O :  0.59    3H :  0.58  569H :  0.58   42H :  0.58  546H :  0.58  191H :  0.56  529O :  0.56  672H :  0.55  630H :  0.55  691O :  0.54  649O :  0.54  355O :  0.53
  254H :  0.52  490O :  0.52  132H :  0.52  255H :  0.52   14H :  0.50  496O :  0.50  452H :  0.49  176H :  0.48  515H :  0.48  298O :  0.47  418O :  0.47   22O :  0.46
  177H :  0.46  270H :  0.46  506H :  0.46  265O :  0.46   38H :  0.45   32H :  0.45   65H :  0.44  587H :  0.43  297H :  0.43  330H :  0.42   11H :  0.42   93H :  0.42
  281H :  0.41  167H :  0.41  661O :  0.39  639H :  0.39  370O :  0.39  432H :  0.39  513H :  0.38  592O :  0.38   73O :  0.37  559O :  0.37    4O :  0.37  668H :  0.36
  708H :  0.36  545H :  0.35  362H :  0.35  412O :  0.35   71H :  0.35  408H :  0.35  551H :  0.35  291H :  0.35  679O :  0.35  422H :  0.34  603H :  0.34  318H :  0.34
  203H :  0.34  119H :  0.34  429H :  0.33  339H :  0.33  214O :  0.33  702H :  0.32  654H :  0.32  404H :  0.32  323H :  0.31  605H :  0.30  482H :  0.30  647H :  0.30
   30H :  0.30  273H :  0.29  239H :  0.29   98H :  0.29  618H :  0.29   50H :  0.29  704H :  0.29  750H :  0.28  357H :  0.28  170H :  0.28  499O :  0.28  184O :  0.27
  380H :  0.27  726H :  0.27  465H :  0.27  410H :  0.27   87H :  0.27  365H :  0.27  548H :  0.26  491H :  0.26  591H :  0.26   95H :  0.26  383H :  0.26  600H :  0.25
  720H :  0.25  272H :  0.25  614H :  0.25  240H :  0.25  507H :  0.25  657H :  0.24  364O :  0.24  553O :  0.24  528H :  0.24  375H :  0.23  705H :  0.23  449H :  0.23
  582H :  0.23  611H :  0.23  216H :  0.22  470H :  0.22  377H :  0.22  390H :  0.22  359H :  0.22  467H :  0.21  687H :  0.21  336H :  0.21  212H :  0.21  536H :  0.21
  721O :  0.21  314H :  0.20  638H :  0.20  442O :  0.20  192H :  0.20  329H :  0.20  372H :  0.20  140H :  0.20  114H :  0.20  411H :  0.19  105H :  0.19  292O :  0.19
  288H :  0.19  477H :  0.19  458H :  0.19  471H :  0.19  540H :  0.18  476H :  0.18  107H :  0.18  456H :  0.18  242H :  0.18  332H :  0.18  612H :  0.17  455H :  0.17
  120H :  0.17  500H :  0.17  251H :  0.17  135H :  0.17  441H :  0.17  333H :  0.16  143H :  0.16  728H :  0.16  164H :  0.16  236H :  0.16  608H :  0.16  159H :  0.15
  594H :  0.15  351H :  0.15   33H :  0.15  222H :  0.15  574O :  0.15  134H :  0.14   24H :  0.14  374H :  0.14  534H :  0.14  743H :  0.14  741H :  0.14  636H :  0.14
  341H :  0.14  210H :  0.14  488H :  0.13  296H :  0.13  193O :  0.13  494H :  0.13  252H :  0.13  522H :  0.13  627H :  0.13  231H :  0.12  699H :  0.12  350H :  0.12
  680H :  0.12  413H :  0.12  386H :  0.12   41H :  0.12  563H :  0.11  402H :  0.11  353H :  0.11  734H :  0.11  626H :  0.11  219H :  0.11  399H :  0.11  363H :  0.11
  204H :  0.11  122H :  0.10  420H :  0.10  290H :  0.10  126H :  0.10  171H :  0.10  123H :  0.10  302H :  0.10  326H :  0.10   20H :  0.10  293H :  0.10  517O :  0.10
  509H :  0.10  729H :  0.10  230H :  0.10   69H :  0.10  345H :  0.09  189H :  0.09  228H :  0.09  261H :  0.09  716H :  0.09  233H :  0.09  621H :  0.09  206H :  0.09
  431H :  0.09  453H :  0.09  665H :  0.09  584H :  0.09  179H :  0.09  662H :  0.09  653H :  0.09  401H :  0.09  542H :  0.09  141H :  0.09   81H :  0.09  155H :  0.09
[...]
   369   1 h    0.887 --   367 o    0.814
   370   8 o    1.810 --   372 h    0.875   371 h    0.869
   371   1 h    0.900 --   370 o    0.869
   372   1 h    0.900 --   370 o    0.875
   373   8 o    1.827 --   374 h    0.879   375 h    0.825
   374   1 h    0.902 --   373 o    0.879
   375   1 h    0.881 --   373 o    0.825
   376   8 o    1.883 --   378 h    0.796   377 h    0.779
   377   1 h    0.870 --   376 o    0.779
   378   1 h    0.874 --   376 o    0.796
   379   8 o    1.863 --   381 h    0.839   380 h    0.822
   380   1 h    0.878 --   379 o    0.822
   381   1 h    0.888 --   379 o    0.839
   382   8 o    1.853 --   384 h    0.860   383 h    0.849
   383   1 h    0.894 --   382 o    0.849
   384   1 h    0.892 --   382 o    0.860
   385   8 o    1.831 --   386 h    0.878   387 h    0.818
   386   1 h    0.907 --   385 o    0.878
   387   1 h    0.878 --   385 o    0.818
   388   8 o    1.825 --   390 h    0.848   389 h    0.819
   389   1 h    0.875 --   388 o    0.819
   390   1 h    0.898 --   388 o    0.848
   391   8 o    1.826 --   392 h    0.887   393 h    0.825
   392   1 h    0.902 --   391 o    0.887
   393   1 h    0.887 --   391 o    0.825
   394   8 o    1.850 --   396 h    0.870   395 h    0.840
   395   1 h    0.889 --   394 o    0.840
   396   1 h    0.898 --   394 o    0.870
   397   8 o    1.853 --   399 h    0.867   398 h    0.802
   398   1 h    0.876 --   397 o    0.802
   399   1 h    0.898 --   397 o    0.867
   400   8 o    1.844 --   402 h    0.867   401 h    0.807
   401   1 h    0.883 --   400 o    0.807
   402   1 h    0.898 --   400 o    0.867
   403   8 o    1.852 --   405 h    0.828   404 h    0.803
   404   1 h    0.879 --   403 o    0.803
   405   1 h    0.888 --   403 o    0.828
   406   8 o    1.870 --   408 h    0.868   407 h    0.835
   407   1 h    0.886 --   406 o    0.835
   408   1 h    0.894 --   406 o    0.868
   409   8 o    1.828 --   410 h    0.873   411 h    0.820
   410   1 h    0.901 --   409 o    0.873
   411   1 h    0.881 --   409 o    0.820
   412   8 o    1.828 --   414 h    0.819   413 h    0.814
   413   1 h    0.883 --   412 o    0.814
   414   1 h    0.880 --   412 o    0.819
   415   8 o    1.875 --   417 h    0.839   416 h    0.783
   416   1 h    0.872 --   415 o    0.783
   417   1 h    0.896 --   415 o    0.839
   418   8 o    1.839 --   420 h    0.860   419 h    0.859
   419   1 h    0.894 --   418 o    0.859
   420   1 h    0.893 --   418 o    0.860
   421   8 o    1.856 --   423 h    0.844   422 h    0.805
   422   1 h    0.878 --   421 o    0.805
   423   1 h    0.893 --   421 o    0.844
   424   8 o    1.861 --   425 h    0.916   426 h    0.821
   425   1 h    0.921 --   424 o    0.916
   426   1 h    0.882 --   424 o    0.821
   427   8 o    1.813 --   429 h    0.864   428 h    0.791
   428   1 h    0.880 --   427 o    0.791
   429   1 h    0.899 --   427 o    0.864
   430   8 o    1.861 --   431 h    0.884   432 h    0.884
   431   1 h    0.900 --   430 o    0.884
   432   1 h    0.897 --   430 o    0.884
   433   8 o    1.856 --   435 h    0.838   434 h    0.805
   434   1 h    0.879 --   433 o    0.805
   435   1 h    0.897 --   433 o    0.838
   436   8 o    1.837 --   437 h    0.890   438 h    0.791
   437   1 h    0.906 --   436 o    0.890
   438   1 h    0.867 --   436 o    0.791
   439   8 o    1.826 --   440 h    0.860   441 h    0.858
   440   1 h    0.896 --   439 o    0.860
   441   1 h    0.898 --   439 o    0.858
   442   8 o    1.871 --   443 h    0.809   444 h    0.806
   443   1 h    0.877 --   442 o    0.809
   444   1 h    0.880 --   442 o    0.806
   445   8 o    1.849 --   447 h    0.864   446 h    0.826
   446   1 h    0.878 --   445 o    0.826
   447   1 h    0.894 --   445 o    0.864
   448   8 o    1.831 --   450 h    0.907   449 h    0.804
   449   1 h    0.875 --   448 o    0.804
   450   1 h    0.915 --   448 o    0.907
   451   8 o    1.866 --   452 h    0.840   453 h    0.828
   452   1 h    0.891 --   451 o    0.840
   453   1 h    0.885 --   451 o    0.828
   454   8 o    1.884 --   455 h    0.818   456 h    0.785
   455   1 h    0.885 --   454 o    0.818
   456   1 h    0.869 --   454 o    0.785
   457   8 o    1.897 --   459 h    0.824   458 h    0.803
   458   1 h    0.878 --   457 o    0.803
   459   1 h    0.889 --   457 o    0.824
   460   8 o    1.862 --   461 h    0.849   462 h    0.805
   461   1 h    0.884 --   460 o    0.849
   462   1 h    0.876 --   460 o    0.805
   463   8 o    1.837 --   465 h    0.879   464 h    0.865
   464   1 h    0.892 --   463 o    0.865
   465   1 h    0.901 --   463 o    0.879
   466   8 o    1.821 --   467 h    0.860   468 h    0.835
   467   1 h    0.899 --   466 o    0.860
   468   1 h    0.892 --   466 o    0.835
   469   8 o    1.898 --   471 h    0.828   470 h    0.807
   470   1 h    0.874 --   469 o    0.807
   471   1 h    0.881 --   469 o    0.828
   472   8 o    1.845 --   474 h    0.852   473 h    0.813
   473   1 h    0.884 --   472 o    0.813
   474   1 h    0.892 --   472 o    0.852
   475   8 o    1.869 --   476 h    0.827   477 h    0.807
   476   1 h    0.887 --   475 o    0.827
   477   1 h    0.884 --   475 o    0.807
   478   8 o    1.827 --   480 h    0.877   479 h    0.815
   479   1 h    0.880 --   478 o    0.815
   480   1 h    0.901 --   478 o    0.877
   481   8 o    1.823 --   482 h    0.846   483 h    0.796
   482   1 h    0.892 --   481 o    0.846
   483   1 h    0.877 --   481 o    0.796
   484   8 o    1.845 --   485 h    0.918   486 h    0.794
   485   1 h    0.921 --   484 o    0.918
   486   1 h    0.877 --   484 o    0.794
   487   8 o    1.828 --   488 h    0.915   489 h    0.795
   488   1 h    0.920 --   487 o    0.915
   489   1 h    0.876 --   487 o    0.795
   490   8 o    1.847 --   492 h    0.910   491 h    0.784
   491   1 h    0.877 --   490 o    0.784
   492   1 h    0.917 --   490 o    0.910
   493   8 o    1.871 --   495 h    0.803   494 h    0.801
   494   1 h    0.887 --   493 o    0.801
   495   1 h    0.878 --   493 o    0.803
   496   8 o    1.865 --   498 h    0.878   497 h    0.858
   497   1 h    0.890 --   496 o    0.858
   498   1 h    0.896 --   496 o    0.878
   499   8 o    1.845 --   501 h    0.861   500 h    0.839
   500   1 h    0.886 --   499 o    0.839
   501   1 h    0.888 --   499 o    0.861
   502   8 o    1.865 --   503 h    0.867   504 h    0.847
   503   1 h    0.894 --   502 o    0.867
   504   1 h    0.889 --   502 o    0.847
   505   8 o    1.846 --   506 h    0.876   507 h    0.825
   506   1 h    0.896 --   505 o    0.876
   507   1 h    0.888 --   505 o    0.825
   508   8 o    1.871 --   509 h    0.839   510 h    0.797
   509   1 h    0.880 --   508 o    0.839
   510   1 h    0.872 --   508 o    0.797
   511   8 o    1.829 --   512 h    0.882   513 h    0.807
   512   1 h    0.903 --   511 o    0.882
   513   1 h    0.886 --   511 o    0.807
   514   8 o    1.867 --   516 h    0.815   515 h    0.807
   515   1 h    0.876 --   514 o    0.807
   516   1 h    0.887 --   514 o    0.815
   517   8 o    1.842 --   519 h    0.876   518 h    0.825
   518   1 h    0.884 --   517 o    0.825
   519   1 h    0.903 --   517 o    0.876
   520   8 o    1.840 --   522 h    0.857   521 h    0.819
   521   1 h    0.890 --   520 o    0.819
   522   1 h    0.898 --   520 o    0.857
   523   8 o    1.813 --   524 h    0.868   525 h    0.845
   524   1 h    0.901 --   523 o    0.868
   525   1 h    0.887 --   523 o    0.845
   526   8 o    1.816 --   528 h    0.817   527 h    0.817
   527   1 h    0.888 --   526 o    0.817
   528   1 h    0.884 --   526 o    0.817
   529   8 o    1.844 --   530 h    0.841   531 h    0.828
   530   1 h    0.892 --   529 o    0.841
   531   1 h    0.891 --   529 o    0.828
   532   8 o    1.872 --   534 h    0.828   533 h    0.814
   533   1 h    0.874 --   532 o    0.814
   534   1 h    0.890 --   532 o    0.828
   535   8 o    1.860 --   536 h    0.856   537 h    0.810
   536   1 h    0.892 --   535 o    0.856
   537   1 h    0.878 --   535 o    0.810
   538   8 o    1.845 --   540 h    0.868   539 h    0.863
   539   1 h    0.895 --   538 o    0.863
   540   1 h    0.898 --   538 o    0.868
   541   8 o    1.844 --   542 h    0.849   543 h    0.816
   542   1 h    0.890 --   541 o    0.849
   543   1 h    0.890 --   541 o    0.816
   544   8 o    1.832 --   546 h    0.881   545 h    0.835
   545   1 h    0.890 --   544 o    0.835
   546   1 h    0.900 --   544 o    0.881
   547   8 o    1.854 --   549 h    0.841   548 h    0.828
   548   1 h    0.889 --   547 o    0.828
   549   1 h    0.891 --   547 o    0.841
   550   8 o    1.857 --   551 h    0.882   552 h    0.794
   551   1 h    0.900 --   550 o    0.882
   552   1 h    0.883 --   550 o    0.794
   553   8 o    1.865 --   555 h    0.914   554 h    0.795
   554   1 h    0.874 --   553 o    0.795
   555   1 h    0.919 --   553 o    0.914
   556   8 o    1.855 --   558 h    0.866   557 h    0.831
   557   1 h    0.890 --   556 o    0.831
   558   1 h    0.896 --   556 o    0.866
   559   8 o    1.845 --   560 h    0.867   561 h    0.857
   560   1 h    0.897 --   559 o    0.867
   561   1 h    0.892 --   559 o    0.857
   562   8 o    1.888 --   564 h    0.837   563 h    0.799
   563   1 h    0.871 --   562 o    0.799
   564   1 h    0.886 --   562 o    0.837
   565   8 o    1.883 --   566 h    0.830   567 h    0.829
   566   1 h    0.891 --   565 o    0.830
   567   1 h    0.873 --   565 o    0.829
   568   8 o    1.856 --   569 h    0.859   570 h    0.793
   569   1 h    0.901 --   568 o    0.859
   570   1 h    0.883 --   568 o    0.793
   571   8 o    1.845 --   573 h    0.824   572 h    0.784
   572   1 h    0.876 --   571 o    0.784
   573   1 h    0.880 --   571 o    0.824
   574   8 o    1.874 --   576 h    0.853   575 h    0.833
   575   1 h    0.887 --   574 o    0.833
   576   1 h    0.892 --   574 o    0.853
   577   8 o    1.863 --   578 h    0.909   579 h    0.819
   578   1 h    0.915 --   577 o    0.909
   579   1 h    0.874 --   577 o    0.819
   580   8 o    1.837 --   581 h    0.875   582 h    0.854
   581   1 h    0.898 --   580 o    0.875
   582   1 h    0.894 --   580 o    0.854
   583   8 o    1.856 --   585 h    0.843   584 h    0.828
   584   1 h    0.886 --   583 o    0.828
   585   1 h    0.891 --   583 o    0.843
   586   8 o    1.842 --   588 h    0.883   587 h    0.841
   587   1 h    0.889 --   586 o    0.841
   588   1 h    0.903 --   586 o    0.883
   589   8 o    1.840 --   590 h    0.811   591 h    0.809
   590   1 h    0.881 --   589 o    0.811
   591   1 h    0.884 --   589 o    0.809
   592   8 o    1.859 --   593 h    0.852   594 h    0.833
   593   1 h    0.890 --   592 o    0.852
   594   1 h    0.878 --   592 o    0.833
   595   8 o    1.853 --   596 h    0.919   597 h    0.794
   596   1 h    0.925 --   595 o    0.919
   597   1 h    0.880 --   595 o    0.794
   598   8 o    1.857 --   600 h    0.848   599 h    0.815
   599   1 h    0.890 --   598 o    0.815
   600   1 h    0.892 --   598 o    0.848
   601   8 o    1.841 --   602 h    0.867   603 h    0.789
   602   1 h    0.903 --   601 o    0.867
   603   1 h    0.871 --   601 o    0.789
   604   8 o    1.855 --   605 h    0.890   606 h    0.830
   605   1 h    0.904 --   604 o    0.890
   606   1 h    0.882 --   604 o    0.830
   607   8 o    1.851 --   609 h    0.856   608 h    0.842
   608   1 h    0.888 --   607 o    0.842
   609   1 h    0.893 --   607 o    0.856
   610   8 o    1.840 --   611 h    0.858   612 h    0.847
   611   1 h    0.893 --   610 o    0.858
   612   1 h    0.891 --   610 o    0.847
   613   8 o    1.842 --   614 h    0.875   615 h    0.836
   614   1 h    0.897 --   613 o    0.875
   615   1 h    0.893 --   613 o    0.836
   616   8 o    1.830 --   618 h    0.891   617 h    0.808
   617   1 h    0.871 --   616 o    0.808
   618   1 h    0.909 --   616 o    0.891
   619   8 o    1.867 --   621 h    0.814   620 h    0.810
   620   1 h    0.888 --   619 o    0.810
   621   1 h    0.880 --   619 o    0.814
   622   8 o    1.864 --   624 h    0.835   623 h    0.795
   623   1 h    0.888 --   622 o    0.795
   624   1 h    0.889 --   622 o    0.835
   625   8 o    1.839 --   626 h    0.861   627 h    0.794
   626   1 h    0.902 --   625 o    0.861
   627   1 h    0.871 --   625 o    0.794
   628   8 o    1.805 --   630 h    0.861   629 h    0.851
   629   1 h    0.900 --   628 o    0.851
   630   1 h    0.902 --   628 o    0.861
   631   8 o    1.862 --   633 h    0.824   632 h    0.813
   632   1 h    0.884 --   631 o    0.813
   633   1 h    0.879 --   631 o    0.824
   634   8 o    1.840 --   636 h    0.861   635 h    0.860
   635   1 h    0.892 --   634 o    0.860
   636   1 h    0.893 --   634 o    0.861
   637   8 o    1.855 --   639 h    0.864   638 h    0.815
   638   1 h    0.876 --   637 o    0.815
   639   1 h    0.903 --   637 o    0.864
   640   8 o    1.816 --   641 h    0.852   642 h    0.845
   641   1 h    0.891 --   640 o    0.852
   642   1 h    0.899 --   640 o    0.845
   643   8 o    1.836 --   645 h    0.851   644 h    0.834
   644   1 h    0.890 --   643 o    0.834
   645   1 h    0.898 --   643 o    0.851
   646   8 o    1.862 --   648 h    0.882   647 h    0.815
   647   1 h    0.884 --   646 o    0.815
   648   1 h    0.901 --   646 o    0.882
   649   8 o    1.836 --   651 h    0.859   650 h    0.827
   650   1 h    0.880 --   649 o    0.827
   651   1 h    0.901 --   649 o    0.859
   652   8 o    1.859 --   654 h    0.839   653 h    0.824
   653   1 h    0.890 --   652 o    0.824
   654   1 h    0.888 --   652 o    0.839
   655   8 o    1.842 --   656 h    0.872   657 h    0.786
   656   1 h    0.899 --   655 o    0.872
   657   1 h    0.878 --   655 o    0.786
   658   8 o    1.848 --   659 h    0.868   660 h    0.827
   659   1 h    0.898 --   658 o    0.868
   660   1 h    0.888 --   658 o    0.827
   661   8 o    1.901 --   663 h    0.825   662 h    0.797
   662   1 h    0.867 --   661 o    0.797
   663   1 h    0.886 --   661 o    0.825
   664   8 o    1.861 --   665 h    0.916   666 h    0.791
   665   1 h    0.919 --   664 o    0.916
   666   1 h    0.872 --   664 o    0.791
   667   8 o    1.825 --   669 h    0.883   668 h    0.793
   668   1 h    0.877 --   667 o    0.793
   669   1 h    0.908 --   667 o    0.883
   670   8 o    1.867 --   672 h    0.848   671 h    0.794
   671   1 h    0.875 --   670 o    0.794
   672   1 h    0.884 --   670 o    0.848
   673   8 o    1.884 --   674 h    0.803   675 h    0.801
   674   1 h    0.877 --   673 o    0.803
   675   1 h    0.871 --   673 o    0.801
   676   8 o    1.856 --   678 h    0.913   677 h    0.782
   677   1 h    0.879 --   676 o    0.782
   678   1 h    0.921 --   676 o    0.913
   679   8 o    1.835 --   680 h    0.909   681 h    0.763
   680   1 h    0.916 --   679 o    0.909
   681   1 h    0.873 --   679 o    0.763
   682   8 o    1.878 --   683 h    0.828   684 h    0.824
   683   1 h    0.876 --   682 o    0.828
   684   1 h    0.885 --   682 o    0.824
   685   8 o    1.844 --   686 h    0.868   687 h    0.800
   686   1 h    0.901 --   685 o    0.868
   687   1 h    0.876 --   685 o    0.800
   688   8 o    1.843 --   689 h    0.835   690 h    0.821
   689   1 h    0.889 --   688 o    0.835
   690   1 h    0.877 --   688 o    0.821
   691   8 o    1.862 --   692 h    0.863   693 h    0.832
   692   1 h    0.894 --   691 o    0.863
   693   1 h    0.882 --   691 o    0.832
   694   8 o    1.835 --   696 h    0.871   695 h    0.810
   695   1 h    0.879 --   694 o    0.810
   696   1 h    0.901 --   694 o    0.871
   697   8 o    1.815 --   699 h    0.855   698 h    0.839
   698   1 h    0.889 --   697 o    0.839
   699   1 h    0.895 --   697 o    0.855
   700   8 o    1.881 --   702 h    0.845   701 h    0.783
   701   1 h    0.865 --   700 o    0.783
   702   1 h    0.895 --   700 o    0.845
   703   8 o    1.882 --   704 h    0.835   705 h    0.796
   704   1 h    0.893 --   703 o    0.835
   705   1 h    0.872 --   703 o    0.796
   706   8 o    1.853 --   707 h    0.846   708 h    0.807
   707   1 h    0.889 --   706 o    0.846
   708   1 h    0.879 --   706 o    0.807
   709   8 o    1.837 --   710 h    0.889   711 h    0.789
   710   1 h    0.907 --   709 o    0.889
   711   1 h    0.876 --   709 o    0.789
   712   8 o    1.822 --   713 h    0.849   714 h    0.813
   713   1 h    0.891 --   712 o    0.849
   714   1 h    0.882 --   712 o    0.813
   715   8 o    1.854 --   717 h    0.915   716 h    0.810
   716   1 h    0.879 --   715 o    0.810
   717   1 h    0.921 --   715 o    0.915
   718   8 o    1.835 --   719 h    0.884   720 h    0.813
   719   1 h    0.905 --   718 o    0.884
   720   1 h    0.881 --   718 o    0.813
   721   8 o    1.859 --   722 h    0.888   723 h    0.824
   722   1 h    0.901 --   721 o    0.888
   723   1 h    0.880 --   721 o    0.824
   724   8 o    1.871 --   725 h    0.869   726 h    0.771
   725   1 h    0.895 --   724 o    0.869
   726   1 h    0.875 --   724 o    0.771
   727   8 o    1.871 --   729 h    0.852   728 h    0.833
   728   1 h    0.892 --   727 o    0.833
   729   1 h    0.899 --   727 o    0.852
   730   8 o    1.869 --   732 h    0.855   731 h    0.846
   731   1 h    0.896 --   730 o    0.846
   732   1 h    0.889 --   730 o    0.855
   733   8 o    1.813 --   735 h    0.854   734 h    0.845
   734   1 h    0.893 --   733 o    0.845
   735   1 h    0.892 --   733 o    0.854
   736   8 o    1.875 --   737 h    0.852   738 h    0.847
   737   1 h    0.891 --   736 o    0.852
   738   1 h    0.885 --   736 o    0.847
   739   8 o    1.854 --   741 h    0.883   740 h    0.849
   740   1 h    0.885 --   739 o    0.849
   741   1 h    0.902 --   739 o    0.883
   742   8 o    1.854 --   744 h    0.841   743 h    0.840
   743   1 h    0.893 --   742 o    0.840
   744   1 h    0.895 --   742 o    0.841
   745   8 o    1.849 --   747 h    0.865   746 h    0.831
   746   1 h    0.882 --   745 o    0.831
   747   1 h    0.899 --   745 o    0.865
   748   8 o    1.873 --   749 h    0.818   750 h    0.783
   749   1 h    0.889 --   748 o    0.818
   750   1 h    0.869 --   748 o    0.783
   751   8 o    1.817 --   752 h    0.878   753 h    0.850
   752   1 h    0.896 --   751 o    0.878
   753   1 h    0.880 --   751 o    0.850
   754   8 o    1.816 --   755 h    0.893   756 h    0.867
   755   1 h    0.903 --   754 o    0.893
   756   1 h    0.892 --   754 o    0.867
 ---------------------------------------------------------------------------

Topologies differ in total number of bonds
Writing topology from bond orders to xtbtopo.mol

molecular dipole:
                 x           y           z       tot (Debye)
 q only:        3.795       0.496       0.805
   full:        4.780       1.386       0.854      12.835
molecular quadrupole (traceless):
                xx          xy          yy          xz          yz          zz
 q only:      100.148     -59.550       7.387      36.636      20.384    -107.534
  q+dip:      140.612     -65.143      -2.589      49.530      28.643    -138.023
   full:      142.033     -64.119      -4.024      50.139      29.664    -138.009


           -------------------------------------------------
          | TOTAL ENERGY            -1283.293277272480 Eh   |
          | GRADIENT NORM               0.102309661005 Eh/α |
          | HOMO-LUMO GAP               6.263636590201 eV   |
           -------------------------------------------------

------------------------------------------------------------------------
 * finished run on 2022/11/24 at 12:22:37.555     
------------------------------------------------------------------------
 total:
 * wall-time:     0 d,  0 h,  0 min, 56.720 sec
 *  cpu-time:     0 d,  0 h,  1 min, 12.964 sec
 * ratio c/w:     1.286 speedup
 SCF:
 * wall-time:     0 d,  0 h,  0 min, 55.663 sec
 *  cpu-time:     0 d,  0 h,  1 min, 11.213 sec
 * ratio c/w:     1.279 speedup

