      -----------------------------------------------------------      
     |                   =====================                   |     
     |                           x T B                           |     
     |                   =====================                   |     
     |                         S. Grimme                         |     
     |          Mulliken Center for Theoretical Chemistry        |     
     |                    University of Bonn                     |     
      -----------------------------------------------------------      

   * xtb version 6.5.1 (579679a) compiled by 'ehlert@majestix' on 2022-07-11

   xtb is free software: you can redistribute it and/or modify it under
   the terms of the GNU Lesser General Public License as published by
   the Free Software Foundation, either version 3 of the License, or
   (at your option) any later version.
   
   xtb is distributed in the hope that it will be useful,
   but WITHOUT ANY WARRANTY; without even the implied warranty of
   MERCHANTABILITY or FITNESS FOR A PARTICULAR PURPOSE.  See the
   GNU Lesser General Public License for more details.
   
   Cite this work as:
   * C. Bannwarth, E. Caldeweyher, S. Ehlert, A. Hansen, P. Pracht,
     J. Seibert, S. Spicher, S. Grimme, WIREs Comput. Mol. Sci., 2020, 11,
     e01493. DOI: 10.1002/wcms.1493
   
   for GFN2-xTB:
   * C. Bannwarth, S. Ehlert and S. Grimme., J. Chem. Theory Comput., 2019,
     15, 1652-1671. DOI: 10.1021/acs.jctc.8b01176
   for GFN1-xTB:
   * S. Grimme, C. Bannwarth, P. Shushkov, J. Chem. Theory Comput., 2017,
     13, 1989-2009. DOI: 10.1021/acs.jctc.7b00118
   for GFN0-xTB:
   * P. Pracht, E. Caldeweyher, S. Ehlert, S. Grimme, ChemRxiv, 2019, preprint.
     DOI: 10.26434/chemrxiv.8326202.v1
   for GFN-FF:
   * S. Spicher and S. Grimme, Angew. Chem. Int. Ed., 2020, 59, 15665-15673.
     DOI: 10.1002/anie.202004239
   
   for ALPB and GBSA implicit solvation:
   * S. Ehlert, M. Stahn, S. Spicher, S. Grimme, J. Chem. Theory Comput.,
     2021, 17, 4250-4261. DOI: 10.1021/acs.jctc.1c00471
   
   for DFT-D4:
   * E. Caldeweyher, C. Bannwarth and S. Grimme, J. Chem. Phys., 2017,
     147, 034112. DOI: 10.1063/1.4993215
   * E. Caldeweyher, S. Ehlert, A. Hansen, H. Neugebauer, S. Spicher,
     C. Bannwarth and S. Grimme, J. Chem. Phys., 2019, 150, 154122.
     DOI: 10.1063/1.5090222
   * E. Caldeweyher, J.-M. Mewes, S. Ehlert and S. Grimme, Phys. Chem. Chem. Phys.
     2020, 22, 8499-8512. DOI: 10.1039/D0CP00502A
   
   for sTDA-xTB:
   * S. Grimme and C. Bannwarth, J. Chem. Phys., 2016, 145, 054103.
     DOI: 10.1063/1.4959605
   
   in the mass-spec context:
   * V. Asgeirsson, C. Bauer and S. Grimme, Chem. Sci., 2017, 8, 4879.
     DOI: 10.1039/c7sc00601b
   * J. Koopman and S. Grimme, ACS Omega 2019, 4, 12, 15120-15133.
     DOI: 10.1021/acsomega.9b02011
   
   for metadynamics refer to:
   * S. Grimme, J. Chem. Theory Comput., 2019, 155, 2847-2862
     DOI: 10.1021/acs.jctc.9b00143
   
   for SPH calculations refer to:
   * S. Spicher and S. Grimme, J. Chem. Theory Comput., 2021, 17, 1701-1714
     DOI: 10.1021/acs.jctc.0c01306
   
   with help from (in alphabetical order)
   P. Atkinson, C. Bannwarth, F. Bohle, G. Brandenburg, E. Caldeweyher
   M. Checinski, S. Dohm, S. Ehlert, S. Ehrlich, I. Gerasimov, C. Hölzer
   A. Katbashev, J. Koopman, C. Lavigne, S. Lehtola, F. März, M. Müller,
   F. Musil, H. Neugebauer, J. Pisarek, C. Plett, P. Pracht, F. Pultar,
   J. Seibert, P. Shushkov, S. Spicher, M. Stahn, M. Steiner, T. Strunk,
   J. Stückrath, T. Rose, and J. Unsleber
   
 * started run on 2022/11/24 at 12:21:16.686     

           -------------------------------------------------
          |                Calculation Setup                |
           -------------------------------------------------

          program call               : xtb xtbopt.coord --gfn2 --sp --gbsa water
          hostname                   : cn0430
          coordinate file            : xtbopt.coord
          omp threads                :                     2

   ID    Z sym.   atoms
    1    8 o      1, 4, 7, 10, 13, 16, 19, 22, 25, 28, 31, 34, 37, 40, 43,
                  46, 49, 52, 55, 58, 61, 64, 67, 70, 73, 76, 79, 82, 85, 88,
                  91, 94, 97, 100, 103, 106, 109, 112, 115, 118, 121, 124,
                  127, 130, 133, 136, 139, 142, 145, 148, 151, 154, 157, 160,
                  163, 166, 169, 172, 175, 178, 181, 184, 187, 190, 193, 196,
                  199, 202, 205, 208, 211, 214, 217, 220, 223, 226, 229, 232,
                  235, 238, 241, 244, 247, 250, 253, 256, 259, 262, 265, 268,
                  271, 274, 277, 280, 283, 286, 289, 292, 295, 298, 301, 304,
                  307, 310, 313, 316, 319, 322, 325, 328, 331, 334, 337, 340,
                  343, 346, 349, 352, 355, 358, 361, 364, 367, 370, 373, 376,
                  379, 382, 385, 388, 391, 394, 397, 400, 403, 406, 409, 412,
                  415, 418, 421, 424, 427, 430, 433, 436, 439, 442, 445, 448,
                  451, 454, 457, 460, 463, 466, 469, 472, 475, 478, 481, 484,
                  487, 490, 493, 496, 499, 502, 505, 508, 511, 514, 517, 520,
                  523, 526, 529, 532, 535, 538, 541, 544, 547, 550, 553, 556,
                  559, 562, 565, 568, 571, 574, 577, 580, 583, 586, 589, 592,
                  595, 598, 601, 604, 607, 610, 613, 616, 619, 622, 625, 628,
                  631, 634, 637, 640, 643, 646, 649, 652, 655, 658, 661, 664,
                  667, 670, 673, 676, 679, 682, 685, 688, 691, 694, 697, 700,
                  703, 706, 709, 712, 715, 718, 721, 724, 727, 730, 733, 736,
                  739, 742, 745, 748, 751, 754
    2    1 h      2, 3, 5, 6, 8, 9, 11, 12, 14, 15, 17, 18, 20, 21, 23, 24,
                  26, 27, 29, 30, 32, 33, 35, 36, 38, 39, 41, 42, 44, 45, 47,
                  48, 50, 51, 53, 54, 56, 57, 59, 60, 62, 63, 65, 66, 68, 69,
                  71, 72, 74, 75, 77, 78, 80, 81, 83, 84, 86, 87, 89, 90, 92,
                  93, 95, 96, 98, 99, 101, 102, 104, 105, 107, 108, 110, 111,
                  113, 114, 116, 117, 119, 120, 122, 123, 125, 126, 128, 129,
                  131, 132, 134, 135, 137, 138, 140, 141, 143, 144, 146, 147,
                  149, 150, 152, 153, 155, 156, 158, 159, 161, 162, 164, 165,
                  167, 168, 170, 171, 173, 174, 176, 177, 179, 180, 182, 183,
                  185, 186, 188, 189, 191, 192, 194, 195, 197, 198, 200, 201,
                  203, 204, 206, 207, 209, 210, 212, 213, 215, 216, 218, 219,
                  221, 222, 224, 225, 227, 228, 230, 231, 233, 234, 236, 237,
                  239, 240, 242, 243, 245, 246, 248, 249, 251, 252, 254, 255,
                  257, 258, 260, 261, 263, 264, 266, 267, 269, 270, 272, 273,
                  275, 276, 278, 279, 281, 282, 284, 285, 287, 288, 290, 291,
                  293, 294, 296, 297, 299, 300, 302, 303, 305, 306, 308, 309,
                  311, 312, 314, 315, 317, 318, 320, 321, 323, 324, 326, 327,
                  329, 330, 332, 333, 335, 336, 338, 339, 341, 342, 344, 345,
                  347, 348, 350, 351, 353, 354, 356, 357, 359, 360, 362, 363,
                  365, 366, 368, 369, 371, 372, 374, 375, 377, 378, 380, 381,
                  383, 384, 386, 387, 389, 390, 392, 393, 395, 396, 398, 399,
                  401, 402, 404, 405, 407, 408, 410, 411, 413, 414, 416, 417,
                  419, 420, 422, 423, 425, 426, 428, 429, 431, 432, 434, 435,
                  437, 438, 440, 441, 443, 444, 446, 447, 449, 450, 452, 453,
                  455, 456, 458, 459, 461, 462, 464, 465, 467, 468, 470, 471,
                  473, 474, 476, 477, 479, 480, 482, 483, 485, 486, 488, 489,
                  491, 492, 494, 495, 497, 498, 500, 501, 503, 504, 506, 507,
                  509, 510, 512, 513, 515, 516, 518, 519, 521, 522, 524, 525,
                  527, 528, 530, 531, 533, 534, 536, 537, 539, 540, 542, 543,
                  545, 546, 548, 549, 551, 552, 554, 555, 557, 558, 560, 561,
                  563, 564, 566, 567, 569, 570, 572, 573, 575, 576, 578, 579,
                  581, 582, 584, 585, 587, 588, 590, 591, 593, 594, 596, 597,
                  599, 600, 602, 603, 605, 606, 608, 609, 611, 612, 614, 615,
                  617, 618, 620, 621, 623, 624, 626, 627, 629, 630, 632, 633,
                  635, 636, 638, 639, 641, 642, 644, 645, 647, 648, 650, 651,
                  653, 654, 656, 657, 659, 660, 662, 663, 665, 666, 668, 669,
                  671, 672, 674, 675, 677, 678, 680, 681, 683, 684, 686, 687,
                  689, 690, 692, 693, 695, 696, 698, 699, 701, 702, 704, 705,
                  707, 708, 710, 711, 713, 714, 716, 717, 719, 720, 722, 723,
                  725, 726, 728, 729, 731, 732, 734, 735, 737, 738, 740, 741,
                  743, 744, 746, 747, 749, 750, 752, 753, 755, 756

molecular fragmentation (1/2 indicates fragments):
111222222222222222222222222222222222222222222222222222222222222222222222
222222222222222222222222222222222222222222222222222222222222222222222222
222222222222222222222222222222222222222222222222222222222222222222222222
222222222222222222222222222222222222222222222222222222222222222222222222
222222222222222222222222222222222222222222222222222222222222222222222222
222222222222222222222222222222222222222222222222222222222222222222222222
222222222222222222222222222222222222222222222222222222222222222222222222
222222222222222222222222222222222222222222222222222222222222222222222222
222222222222222222222222222222222222222222222222222222222222222222222222
222222222222222222222222222222222222222222222222222222222222222222222222
222222222222222222222222222222222222
# atoms in fragment 1/2:     3   753
 fragment masses (1/2) :       18.02     4521.84
CMA distance (Bohr)    :  15.880
constraining FC (au)   :  0.0500

           -------------------------------------------------
          |                 G F N 2 - x T B                 |
           -------------------------------------------------

        Reference                      10.1021/acs.jctc.8b01176
      * Hamiltonian:
        H0-scaling (s, p, d)           1.850000    2.230000    2.230000
        zeta-weighting                 0.500000
      * Dispersion:
        s8                             2.700000
        a1                             0.520000
        a2                             5.000000
        s9                             5.000000
      * Repulsion:
        kExp                           1.500000    1.000000
        rExp                           1.000000
      * Coulomb:
        alpha                          2.000000
        third order                    shell-resolved
        anisotropic                    true
        a3                             3.000000
        a5                             4.000000
        cn-shift                       1.200000
        cn-exp                         4.000000
        max-rad                        5.000000

      * Solvation model:               GBSA
        Solvent                        water
        Parameter file                 internal GFN2-xTB/GBSA
        Dielectric constant                8.0200E+01
        Reference state                gsolv [1 M gas/solution]
        Free energy shift                  1.8574E-03 Eh       1.1656E+00 kcal/mol
        Temperature                        2.9815E+02 K
        Density                            1.0000E+00 kg/L
        Solvent mass                       1.8000E+01 g/mol
        Interaction kernel             Still
        Born radius scaling (c1)           1.5524E+00
        Born radii integrator          GBOBC
        Born offset                        2.4628E-02 a0       4.6540E-02 AA
        H-bond correction              true
        Ion screening                  false
        Surface tension                    1.0000E-05 Eh       1.5569E+01 dyn/cm
        Grid points                               230 per atom

          ...................................................
          :                      SETUP                      :
          :.................................................:
          :  # basis functions                1512          :
          :  # atomic orbitals                1512          :
          :  # shells                         1008          :
          :  # electrons                      2016          :
          :  max. iterations                   250          :
          :  Hamiltonian                  GFN2-xTB          :
          :  restarted?                      false          :
          :  GBSA solvation                   true          :
          :  PC potential                    false          :
          :  electronic temp.          300.0000000     K    :
          :  accuracy                    1.0000000          :
          :  -> integral cutoff          0.2500000E+02      :
          :  -> integral neglect         0.1000000E-07      :
          :  -> SCF convergence          0.1000000E-05 Eh   :
          :  -> wf. convergence          0.1000000E-03 e    :
          :  Broyden damping             0.4000000          :
          ...................................................

 iter      E             dE          RMSdq      gap      omega  full diag
   1  -1291.2093959 -0.129121E+04  0.408E+00    8.46       0.0  T
   2  -1291.2924577 -0.830617E-01  0.242E+00    8.07       1.0  T
   3  -1291.3281762 -0.357186E-01  0.224E-01    7.02       1.0  T
   4  -1291.3335754 -0.539922E-02  0.485E-02    7.29       1.0  T
   5  -1291.3337429 -0.167463E-03  0.312E-02    7.23       1.0  T
   6  -1291.3337909 -0.479894E-04  0.366E-03    7.23       1.0  T
   7  -1291.3337925 -0.158407E-05  0.916E-04    7.23       4.0  T
   8  -1291.3337926 -0.831312E-07  0.467E-04    7.23       7.8  T
   9  -1291.3337926 -0.330385E-07  0.127E-04    7.23      28.7  T

   *** convergence criteria satisfied after 9 iterations ***

         #    Occupation            Energy/Eh            Energy/eV
      -------------------------------------------------------------
         1        2.0000           -0.6583019             -17.9133
       ...           ...                  ...                  ...
      1002        2.0000           -0.3334025              -9.0723
      1003        2.0000           -0.3305628              -8.9951
      1004        2.0000           -0.3259407              -8.8693
      1005        2.0000           -0.3251980              -8.8491
      1006        2.0000           -0.3239335              -8.8147
      1007        2.0000           -0.3224759              -8.7750
      1008        2.0000           -0.3153222              -8.5804 (HOMO)
      1009                         -0.0497306              -1.3532 (LUMO)
      1010                         -0.0402607              -1.0955
      1011                         -0.0355301              -0.9668
      1012                         -0.0306396              -0.8337
      1013                         -0.0240185              -0.6536
       ...                                ...                  ...
      1512                          0.5049851              13.7413
      -------------------------------------------------------------
                  HL-Gap            0.2655916 Eh            7.2271 eV
             Fermi-level           -0.1825264 Eh           -4.9668 eV

 SCC (total)                   0 d,  0 h,  0 min, 22.293 sec
 SCC setup                      ...        0 min,  0.118 sec (  0.530%)
 Dispersion                     ...        0 min,  0.118 sec (  0.529%)
 classical contributions        ...        0 min,  0.023 sec (  0.105%)
 integral evaluation            ...        0 min,  0.626 sec (  2.808%)
 iterations                     ...        0 min,  8.458 sec ( 37.939%)
 molecular gradient             ...        0 min, 12.876 sec ( 57.757%)
 printout                       ...        0 min,  0.074 sec (  0.331%)

         :::::::::::::::::::::::::::::::::::::::::::::::::::::
         ::                     SUMMARY                     ::
         :::::::::::::::::::::::::::::::::::::::::::::::::::::
         :: total energy           -1283.536255320466 Eh    ::
         :: total w/o Gsasa/hb     -1283.302824194717 Eh    ::
         :: gradient norm              0.117032163699 Eh/a0 ::
         :: HOMO-LUMO gap              7.227115753474 eV    ::
         ::.................................................::
         :: SCC energy             -1291.333792587123 Eh    ::
         :: -> isotropic ES            7.337536353526 Eh    ::
         :: -> anisotropic ES         -1.629127296799 Eh    ::
         :: -> anisotropic XC         -0.120425296211 Eh    ::
         :: -> dispersion             -0.797038460097 Eh    ::
         :: -> Gsolv                  -0.257811875312 Eh    ::
         ::    -> Gelec               -0.024380749563 Eh    ::
         ::    -> Gsasa                0.004736706381 Eh    ::
         ::    -> Ghb                 -0.240025275257 Eh    ::
         ::    -> Gshift               0.001857443127 Eh    ::
         :: repulsion energy           7.640070934942 Eh    ::
         :: add. restraining           0.000000000000 Eh    ::
         :: total charge              -0.000000000000 e     ::
         :::::::::::::::::::::::::::::::::::::::::::::::::::::

           -------------------------------------------------
          |                Property Printout                |
           -------------------------------------------------

    * Orbital Energies and Occupations

         #    Occupation            Energy/Eh            Energy/eV
      -------------------------------------------------------------
         1        2.0000           -0.6583019             -17.9133
       ...           ...                  ...                  ...
       996        2.0000           -0.3409733              -9.2784
       997        2.0000           -0.3395139              -9.2386
       998        2.0000           -0.3393469              -9.2341
       999        2.0000           -0.3384787              -9.2105
      1000        2.0000           -0.3369204              -9.1681
      1001        2.0000           -0.3367398              -9.1632
      1002        2.0000           -0.3334025              -9.0723
      1003        2.0000           -0.3305628              -8.9951
      1004        2.0000           -0.3259407              -8.8693
      1005        2.0000           -0.3251980              -8.8491
      1006        2.0000           -0.3239335              -8.8147
      1007        2.0000           -0.3224759              -8.7750
      1008        2.0000           -0.3153222              -8.5804 (HOMO)
      1009                         -0.0497306              -1.3532 (LUMO)
      1010                         -0.0402607              -1.0955
      1011                         -0.0355301              -0.9668
      1012                         -0.0306396              -0.8337
      1013                         -0.0240185              -0.6536
      1014                         -0.0194675              -0.5297
      1015                         -0.0145279              -0.3953
      1016                         -0.0122857              -0.3343
      1017                         -0.0054464              -0.1482
      1018                         -0.0019533              -0.0532
      1019                          0.0031030               0.0844
       ...                                ...                  ...
      1512                          0.5049851              13.7413
      -------------------------------------------------------------
                  HL-Gap            0.2655916 Eh            7.2271 eV
             Fermi-level           -0.1825264 Eh           -4.9668 eV

     #   Z          covCN         q      C6AA      α(0)
     1   8 o        1.606    -0.696    27.615     7.092
     2   1 h        0.803     0.338     0.616     1.233
     3   1 h        0.804     0.341     0.609     1.226
     4   8 o        1.608    -0.677    27.112     7.028
     5   1 h        0.803     0.351     0.586     1.202
     6   1 h        0.805     0.343     0.604     1.220
     7   8 o        1.608    -0.682    27.240     7.044
     8   1 h        0.804     0.337     0.620     1.237
     9   1 h        0.804     0.342     0.608     1.225
    10   8 o        1.608    -0.685    27.322     7.055
    11   1 h        0.803     0.359     0.567     1.183
    12   1 h        0.804     0.353     0.582     1.198
    13   8 o        1.608    -0.679    27.166     7.034
    14   1 h        0.804     0.342     0.608     1.225
    15   1 h        0.804     0.341     0.610     1.226
    16   8 o        1.609    -0.691    27.484     7.076
    17   1 h        0.804     0.364     0.557     1.172
    18   1 h        0.803     0.357     0.573     1.189
    19   8 o        1.610    -0.668    26.881     6.998
    20   1 h        0.804     0.342     0.607     1.224
    21   1 h        0.805     0.334     0.628     1.244
    22   8 o        1.608    -0.693    27.522     7.080
    23   1 h        0.804     0.345     0.599     1.216
    24   1 h        0.804     0.349     0.591     1.208
    25   8 o        1.608    -0.691    27.479     7.075
    26   1 h        0.804     0.336     0.621     1.238
    27   1 h        0.805     0.338     0.618     1.235
    28   8 o        1.608    -0.674    27.029     7.017
    29   1 h        0.805     0.331     0.634     1.251
    30   1 h        0.803     0.331     0.635     1.252
    31   8 o        1.608    -0.680    27.196     7.038
    32   1 h        0.804     0.349     0.590     1.207
    33   1 h        0.804     0.355     0.577     1.193
    34   8 o        1.609    -0.675    27.058     7.021
    35   1 h        0.805     0.344     0.602     1.219
    36   1 h        0.803     0.359     0.569     1.185
    37   8 o        1.606    -0.706    27.862     7.124
    38   1 h        0.804     0.351     0.585     1.202
    39   1 h        0.803     0.348     0.593     1.210
    40   8 o        1.609    -0.672    26.983     7.011
    41   1 h        0.805     0.336     0.623     1.240
    42   1 h        0.804     0.336     0.623     1.240
    43   8 o        1.609    -0.693    27.526     7.081
    44   1 h        0.804     0.337     0.620     1.236
    45   1 h        0.805     0.334     0.628     1.245
    46   8 o        1.606    -0.692    27.501     7.078
    47   1 h        0.802     0.363     0.558     1.174
    48   1 h        0.803     0.325     0.651     1.267
    49   8 o        1.607    -0.697    27.624     7.094
    50   1 h        0.804     0.342     0.608     1.225
    51   1 h        0.804     0.332     0.632     1.249
    52   8 o        1.606    -0.679    27.170     7.035
    53   1 h        0.802     0.337     0.620     1.237
    54   1 h        0.805     0.330     0.636     1.253
    55   8 o        1.606    -0.686    27.335     7.056
    56   1 h        0.803     0.354     0.579     1.196
    57   1 h        0.804     0.329     0.639     1.256
    58   8 o        1.608    -0.665    26.795     6.986
    59   1 h        0.805     0.341     0.611     1.227
    60   1 h        0.803     0.325     0.651     1.267
    61   8 o        1.609    -0.687    27.355     7.059
    62   1 h        0.805     0.330     0.637     1.254
    63   1 h        0.804     0.342     0.608     1.225
    64   8 o        1.609    -0.674    27.019     7.016
    65   1 h        0.804     0.346     0.598     1.215
    66   1 h        0.805     0.349     0.590     1.207
    67   8 o        1.606    -0.684    27.290     7.050
    68   1 h        0.805     0.328     0.641     1.258
    69   1 h        0.802     0.347     0.596     1.213
    70   8 o        1.607    -0.686    27.352     7.059
    71   1 h        0.804     0.337     0.619     1.236
    72   1 h        0.803     0.342     0.608     1.225
    73   8 o        1.609    -0.674    27.027     7.016
    74   1 h        0.804     0.336     0.623     1.239
    75   1 h        0.804     0.330     0.637     1.254
    76   8 o        1.606    -0.685    27.322     7.055
    77   1 h        0.803     0.341     0.611     1.228
    78   1 h        0.803     0.342     0.608     1.225
    79   8 o        1.608    -0.701    27.742     7.109
    80   1 h        0.803     0.352     0.584     1.200
    81   1 h        0.805     0.336     0.623     1.239
    82   8 o        1.608    -0.695    27.570     7.087
    83   1 h        0.804     0.359     0.567     1.183
    84   1 h        0.804     0.354     0.580     1.196
    85   8 o        1.606    -0.698    27.668     7.099
    86   1 h        0.803     0.355     0.576     1.192
    87   1 h        0.803     0.350     0.589     1.206
    88   8 o        1.608    -0.695    27.571     7.087
    89   1 h        0.803     0.348     0.594     1.211
    90   1 h        0.803     0.345     0.600     1.217
    91   8 o        1.605    -0.682    27.226     7.042
    92   1 h        0.804     0.326     0.647     1.264
    93   1 h        0.802     0.354     0.580     1.196
    94   8 o        1.608    -0.676    27.083     7.024
    95   1 h        0.803     0.350     0.588     1.205
    96   1 h        0.805     0.349     0.590     1.207
    97   8 o        1.608    -0.705    27.847     7.122
    98   1 h        0.803     0.345     0.600     1.217
    99   1 h        0.804     0.343     0.604     1.221
   100   8 o        1.609    -0.675    27.056     7.020
   101   1 h        0.805     0.325     0.650     1.266
   102   1 h        0.804     0.344     0.601     1.218
   103   8 o        1.608    -0.694    27.543     7.083
   104   1 h        0.805     0.340     0.613     1.230
   105   1 h        0.804     0.344     0.603     1.220
   106   8 o        1.603    -0.727    28.446     7.198
   107   1 h        0.803     0.356     0.575     1.191
   108   1 h        0.802     0.357     0.572     1.188
   109   8 o        1.609    -0.674    27.032     7.017
   110   1 h        0.805     0.333     0.629     1.246
   111   1 h        0.804     0.326     0.647     1.264
   112   8 o        1.607    -0.675    27.053     7.020
   113   1 h        0.804     0.322     0.658     1.275
   114   1 h        0.803     0.350     0.589     1.205
   115   8 o        1.606    -0.693    27.537     7.082
   116   1 h        0.803     0.349     0.591     1.208
   117   1 h        0.803     0.350     0.589     1.206
   118   8 o        1.607    -0.683    27.268     7.048
   119   1 h        0.803     0.368     0.548     1.163
   120   1 h        0.803     0.338     0.618     1.235
   121   8 o        1.608    -0.675    27.044     7.019
   122   1 h        0.804     0.348     0.593     1.210
   123   1 h        0.803     0.351     0.587     1.203
   124   8 o        1.607    -0.690    27.456     7.072
   125   1 h        0.805     0.347     0.595     1.212
   126   1 h        0.802     0.359     0.567     1.183
   127   8 o        1.606    -0.705    27.834     7.120
   128   1 h        0.805     0.315     0.678     1.293
   129   1 h        0.801     0.366     0.553     1.168
   130   8 o        1.607    -0.698    27.669     7.099
   131   1 h        0.804     0.352     0.584     1.201
   132   1 h        0.803     0.347     0.596     1.213
   133   8 o        1.606    -0.711    28.020     7.144
   134   1 h        0.803     0.356     0.575     1.192
   135   1 h        0.803     0.341     0.609     1.226
   136   8 o        1.608    -0.670    26.938     7.005
   137   1 h        0.805     0.334     0.627     1.244
   138   1 h        0.802     0.363     0.558     1.174
   139   8 o        1.609    -0.676    27.076     7.023
   140   1 h        0.805     0.327     0.646     1.263
   141   1 h        0.803     0.363     0.560     1.175
   142   8 o        1.609    -0.666    26.832     6.991
   143   1 h        0.805     0.331     0.636     1.253
   144   1 h        0.804     0.341     0.610     1.227
   145   8 o        1.606    -0.682    27.242     7.044
   146   1 h        0.802     0.335     0.624     1.241
   147   1 h        0.804     0.336     0.621     1.238
   148   8 o        1.608    -0.675    27.056     7.020
   149   1 h        0.804     0.345     0.600     1.217
   150   1 h        0.803     0.360     0.565     1.181
   151   8 o        1.609    -0.684    27.292     7.051
   152   1 h        0.804     0.335     0.624     1.241
   153   1 h        0.803     0.358     0.569     1.185
   154   8 o        1.607    -0.666    26.820     6.990
   155   1 h        0.803     0.342     0.607     1.224
   156   1 h        0.804     0.324     0.652     1.269
   157   8 o        1.609    -0.680    27.181     7.036
   158   1 h        0.804     0.346     0.598     1.215
   159   1 h        0.804     0.331     0.635     1.252
   160   8 o        1.608    -0.675    27.051     7.020
   161   1 h        0.805     0.320     0.662     1.278
   162   1 h        0.803     0.338     0.617     1.234
   163   8 o        1.610    -0.669    26.908     7.001
   164   1 h        0.805     0.340     0.613     1.230
   165   1 h        0.805     0.348     0.594     1.211
   166   8 o        1.609    -0.651    26.431     6.939
   167   1 h        0.804     0.338     0.616     1.233
   168   1 h        0.804     0.348     0.593     1.209
   169   8 o        1.605    -0.713    28.071     7.151
   170   1 h        0.805     0.355     0.576     1.192
   171   1 h        0.803     0.351     0.586     1.202
   172   8 o        1.606    -0.696    27.597     7.090
   173   1 h        0.802     0.353     0.581     1.197
   174   1 h        0.804     0.323     0.655     1.271
   175   8 o        1.607    -0.683    27.268     7.048
   176   1 h        0.803     0.362     0.561     1.177
   177   1 h        0.805     0.349     0.591     1.207
   178   8 o        1.605    -0.706    27.883     7.127
   179   1 h        0.803     0.362     0.560     1.176
   180   1 h        0.805     0.308     0.698     1.312
   181   8 o        1.607    -0.676    27.087     7.024
   182   1 h        0.803     0.332     0.632     1.248
   183   1 h        0.803     0.360     0.566     1.182
   184   8 o        1.609    -0.667    26.839     6.992
   185   1 h        0.804     0.339     0.615     1.232
   186   1 h        0.804     0.349     0.590     1.207
   187   8 o        1.606    -0.714    28.085     7.152
   188   1 h        0.803     0.345     0.600     1.217
   189   1 h        0.804     0.335     0.624     1.241
   190   8 o        1.608    -0.686    27.349     7.058
   191   1 h        0.805     0.324     0.652     1.269
   192   1 h        0.803     0.347     0.595     1.212
   193   8 o        1.606    -0.685    27.319     7.054
   194   1 h        0.802     0.344     0.603     1.220
   195   1 h        0.804     0.331     0.636     1.253
   196   8 o        1.609    -0.653    26.487     6.946
   197   1 h        0.806     0.305     0.707     1.320
   198   1 h        0.803     0.342     0.608     1.225
   199   8 o        1.606    -0.683    27.260     7.047
   200   1 h        0.803     0.346     0.598     1.215
   201   1 h        0.803     0.345     0.600     1.217
   202   8 o        1.604    -0.722    28.314     7.181
   203   1 h        0.802     0.352     0.584     1.201
   204   1 h        0.803     0.360     0.565     1.181
   205   8 o        1.606    -0.683    27.270     7.048
   206   1 h        0.802     0.364     0.557     1.172
   207   1 h        0.806     0.318     0.668     1.284
   208   8 o        1.606    -0.688    27.398     7.064
   209   1 h        0.802     0.349     0.591     1.208
   210   1 h        0.804     0.323     0.656     1.272
   211   8 o        1.609    -0.677    27.095     7.025
   212   1 h        0.805     0.321     0.662     1.278
   213   1 h        0.804     0.333     0.629     1.246
   214   8 o        1.607    -0.683    27.266     7.047
   215   1 h        0.803     0.355     0.577     1.193
   216   1 h        0.805     0.342     0.607     1.224
   217   8 o        1.607    -0.695    27.585     7.088
   218   1 h        0.804     0.361     0.563     1.179
   219   1 h        0.803     0.349     0.590     1.207
   220   8 o        1.608    -0.671    26.944     7.006
   221   1 h        0.804     0.336     0.622     1.239
   222   1 h        0.803     0.332     0.632     1.249
   223   8 o        1.609    -0.672    26.969     7.009
   224   1 h        0.804     0.332     0.633     1.249
   225   1 h        0.804     0.347     0.596     1.213
   226   8 o        1.609    -0.663    26.754     6.981
   227   1 h        0.804     0.334     0.628     1.245
   228   1 h        0.805     0.338     0.617     1.234
   229   8 o        1.609    -0.673    26.992     7.012
   230   1 h        0.804     0.340     0.612     1.229
   231   1 h        0.805     0.346     0.598     1.215
   232   8 o        1.609    -0.672    26.984     7.011
   233   1 h        0.804     0.337     0.621     1.237
   234   1 h        0.804     0.339     0.614     1.231
   235   8 o        1.606    -0.693    27.538     7.082
   236   1 h        0.804     0.321     0.661     1.277
   237   1 h        0.802     0.361     0.563     1.179
   238   8 o        1.605    -0.704    27.813     7.118
   239   1 h        0.803     0.351     0.585     1.202
   240   1 h        0.802     0.358     0.569     1.185
   241   8 o        1.608    -0.687    27.375     7.061
   242   1 h        0.804     0.331     0.634     1.251
   243   1 h        0.803     0.345     0.600     1.217
   244   8 o        1.607    -0.695    27.568     7.086
   245   1 h        0.805     0.338     0.616     1.233
   246   1 h        0.802     0.331     0.635     1.252
   247   8 o        1.607    -0.675    27.064     7.021
   248   1 h        0.802     0.372     0.539     1.154
   249   1 h        0.804     0.343     0.605     1.222
   250   8 o        1.606    -0.699    27.686     7.101
   251   1 h        0.804     0.324     0.652     1.268
   252   1 h        0.803     0.355     0.576     1.192
   253   8 o        1.607    -0.697    27.637     7.095
   254   1 h        0.804     0.324     0.652     1.269
   255   1 h        0.803     0.356     0.574     1.190
   256   8 o        1.610    -0.660    26.676     6.971
   257   1 h        0.804     0.339     0.615     1.232
   258   1 h        0.805     0.320     0.664     1.280
   259   8 o        1.607    -0.687    27.372     7.061
   260   1 h        0.803     0.359     0.568     1.184
   261   1 h        0.804     0.319     0.666     1.282
   262   8 o        1.607    -0.700    27.702     7.104
   263   1 h        0.804     0.348     0.592     1.209
   264   1 h        0.803     0.351     0.586     1.203
   265   8 o        1.609    -0.674    27.030     7.017
   266   1 h        0.804     0.358     0.570     1.186
   267   1 h        0.805     0.323     0.654     1.271
   268   8 o        1.609    -0.666    26.814     6.989
   269   1 h        0.805     0.329     0.641     1.258
   270   1 h        0.804     0.353     0.582     1.198
   271   8 o        1.605    -0.716    28.152     7.161
   272   1 h        0.804     0.351     0.586     1.202
   273   1 h        0.803     0.352     0.584     1.200
   274   8 o        1.609    -0.680    27.194     7.038
   275   1 h        0.804     0.337     0.621     1.237
   276   1 h        0.804     0.337     0.621     1.238
   277   8 o        1.605    -0.694    27.567     7.086
   278   1 h        0.802     0.364     0.557     1.172
   279   1 h        0.803     0.331     0.635     1.252
   280   8 o        1.608    -0.660    26.679     6.971
   281   1 h        0.804     0.334     0.628     1.244
   282   1 h        0.804     0.338     0.617     1.234
   283   8 o        1.609    -0.665    26.793     6.986
   284   1 h        0.805     0.338     0.617     1.233
   285   1 h        0.804     0.344     0.602     1.219
   286   8 o        1.608    -0.673    27.007     7.014
   287   1 h        0.803     0.353     0.581     1.198
   288   1 h        0.805     0.329     0.640     1.256
   289   8 o        1.608    -0.675    27.046     7.019
   290   1 h        0.803     0.363     0.560     1.176
   291   1 h        0.805     0.310     0.692     1.307
   292   8 o        1.609    -0.681    27.212     7.040
   293   1 h        0.803     0.345     0.601     1.218
   294   1 h        0.805     0.337     0.620     1.237
   295   8 o        1.607    -0.681    27.217     7.041
   296   1 h        0.803     0.356     0.575     1.191
   297   1 h        0.804     0.325     0.650     1.267
   298   8 o        1.608    -0.640    26.173     6.905
   299   1 h        0.805     0.333     0.630     1.247
   300   1 h        0.803     0.349     0.590     1.207
   301   8 o        1.607    -0.686    27.335     7.056
   302   1 h        0.803     0.358     0.569     1.185
   303   1 h        0.804     0.345     0.600     1.217
   304   8 o        1.610    -0.657    26.598     6.961
   305   1 h        0.805     0.325     0.650     1.266
   306   1 h        0.805     0.333     0.629     1.246
   307   8 o        1.609    -0.671    26.954     7.007
   308   1 h        0.804     0.327     0.646     1.262
   309   1 h        0.804     0.330     0.638     1.254
   310   8 o        1.607    -0.684    27.294     7.051
   311   1 h        0.804     0.332     0.631     1.248
   312   1 h        0.802     0.363     0.560     1.175
   313   8 o        1.608    -0.670    26.938     7.005
   314   1 h        0.804     0.322     0.659     1.275
   315   1 h        0.804     0.359     0.569     1.185
   316   8 o        1.606    -0.666    26.825     6.990
   317   1 h        0.806     0.315     0.678     1.293
   318   1 h        0.802     0.349     0.591     1.208
   319   8 o        1.608    -0.677    27.116     7.028
   320   1 h        0.804     0.337     0.620     1.236
   321   1 h        0.804     0.344     0.603     1.220
   322   8 o        1.608    -0.682    27.248     7.045
   323   1 h        0.805     0.330     0.637     1.254
   324   1 h        0.803     0.344     0.602     1.219
   325   8 o        1.608    -0.691    27.477     7.075
   326   1 h        0.804     0.323     0.656     1.273
   327   1 h        0.805     0.346     0.599     1.215
   328   8 o        1.611    -0.682    27.228     7.043
   329   1 h        0.804     0.331     0.635     1.252
   330   1 h        0.804     0.354     0.580     1.196
   331   8 o        1.608    -0.658    26.609     6.962
   332   1 h        0.805     0.314     0.679     1.295
   333   1 h        0.802     0.340     0.613     1.230
   334   8 o        1.603    -0.719    28.233     7.171
   335   1 h        0.803     0.336     0.622     1.239
   336   1 h        0.802     0.364     0.556     1.171
   337   8 o        1.608    -0.675    27.065     7.021
   338   1 h        0.804     0.348     0.593     1.210
   339   1 h        0.804     0.350     0.588     1.205
   340   8 o        1.606    -0.689    27.422     7.068
   341   1 h        0.802     0.364     0.556     1.171
   342   1 h        0.805     0.320     0.663     1.279
   343   8 o        1.606    -0.688    27.388     7.063
   344   1 h        0.804     0.331     0.636     1.252
   345   1 h        0.803     0.338     0.618     1.235
   346   8 o        1.607    -0.672    26.985     7.011
   347   1 h        0.802     0.347     0.596     1.213
   348   1 h        0.806     0.323     0.656     1.272
   349   8 o        1.608    -0.666    26.827     6.991
   350   1 h        0.804     0.347     0.596     1.212
   351   1 h        0.803     0.337     0.621     1.237
   352   8 o        1.608    -0.693    27.529     7.081
   353   1 h        0.804     0.336     0.623     1.240
   354   1 h        0.804     0.340     0.613     1.230
   355   8 o        1.608    -0.662    26.731     6.978
   356   1 h        0.805     0.323     0.655     1.271
   357   1 h        0.804     0.326     0.649     1.265
   358   8 o        1.607    -0.691    27.469     7.074
   359   1 h        0.806     0.309     0.695     1.309
   360   1 h        0.802     0.366     0.552     1.167
   361   8 o        1.605    -0.697    27.624     7.093
   362   1 h        0.801     0.370     0.544     1.159
   363   1 h        0.805     0.320     0.665     1.281
   364   8 o        1.606    -0.683    27.271     7.048
   365   1 h        0.804     0.341     0.610     1.227
   366   1 h        0.802     0.355     0.577     1.193
   367   8 o        1.606    -0.680    27.192     7.038
   368   1 h        0.803     0.351     0.587     1.203
   369   1 h        0.803     0.333     0.629     1.246
   370   8 o        1.610    -0.663    26.753     6.981
   371   1 h        0.805     0.323     0.655     1.271
   372   1 h        0.805     0.327     0.645     1.261
   373   8 o        1.609    -0.678    27.137     7.031
   374   1 h        0.805     0.317     0.672     1.288
   375   1 h        0.804     0.356     0.575     1.192
   376   8 o        1.607    -0.706    27.870     7.125
   377   1 h        0.803     0.363     0.558     1.174
   378   1 h        0.802     0.354     0.578     1.195
   379   8 o        1.610    -0.674    27.026     7.016
   380   1 h        0.804     0.351     0.585     1.201
   381   1 h        0.804     0.333     0.630     1.247
   382   8 o        1.610    -0.641    26.196     6.908
   383   1 h        0.805     0.323     0.656     1.272
   384   1 h        0.805     0.328     0.642     1.259
   385   8 o        1.608    -0.693    27.513     7.079
   386   1 h        0.805     0.319     0.666     1.282
   387   1 h        0.803     0.359     0.567     1.183
   388   8 o        1.609    -0.677    27.096     7.025
   389   1 h        0.804     0.351     0.585     1.201
   390   1 h        0.805     0.319     0.668     1.284
   391   8 o        1.608    -0.674    27.019     7.015
   392   1 h        0.805     0.320     0.663     1.279
   393   1 h        0.803     0.345     0.600     1.217
   394   8 o        1.608    -0.674    27.016     7.015
   395   1 h        0.803     0.341     0.611     1.228
   396   1 h        0.805     0.333     0.630     1.247
   397   8 o        1.608    -0.677    27.105     7.027
   398   1 h        0.803     0.360     0.565     1.181
   399   1 h        0.805     0.316     0.673     1.289
   400   8 o        1.607    -0.676    27.073     7.022
   401   1 h        0.803     0.349     0.591     1.208
   402   1 h        0.805     0.323     0.656     1.272
   403   8 o        1.608    -0.682    27.248     7.045
   404   1 h        0.804     0.346     0.598     1.214
   405   1 h        0.804     0.335     0.625     1.242
   406   8 o        1.610    -0.668    26.866     6.996
   407   1 h        0.804     0.347     0.596     1.212
   408   1 h        0.805     0.335     0.624     1.241
   409   8 o        1.608    -0.682    27.244     7.045
   410   1 h        0.805     0.320     0.664     1.280
   411   1 h        0.803     0.353     0.581     1.198
   412   8 o        1.607    -0.700    27.706     7.104
   413   1 h        0.803     0.345     0.599     1.216
   414   1 h        0.804     0.337     0.620     1.237
   415   8 o        1.606    -0.689    27.421     7.067
   416   1 h        0.802     0.365     0.555     1.171
   417   1 h        0.804     0.323     0.655     1.272
   418   8 o        1.609    -0.666    26.811     6.988
   419   1 h        0.804     0.335     0.624     1.241
   420   1 h        0.805     0.334     0.628     1.245
   421   8 o        1.608    -0.677    27.094     7.025
   422   1 h        0.803     0.347     0.594     1.211
   423   1 h        0.805     0.328     0.644     1.260
   424   8 o        1.608    -0.656    26.561     6.956
   425   1 h        0.806     0.317     0.673     1.288
   426   1 h        0.803     0.344     0.603     1.220
   427   8 o        1.607    -0.691    27.479     7.075
   428   1 h        0.803     0.353     0.581     1.198
   429   1 h        0.805     0.320     0.665     1.281
   430   8 o        1.610    -0.634    26.025     6.885
   431   1 h        0.805     0.327     0.646     1.262
   432   1 h        0.805     0.329     0.641     1.257
   433   8 o        1.607    -0.681    27.213     7.041
   434   1 h        0.803     0.348     0.592     1.209
   435   1 h        0.804     0.321     0.661     1.277
   436   8 o        1.607    -0.684    27.278     7.049
   437   1 h        0.805     0.315     0.677     1.293
   438   1 h        0.802     0.370     0.543     1.158
   439   8 o        1.609    -0.682    27.248     7.045
   440   1 h        0.804     0.334     0.627     1.243
   441   1 h        0.804     0.335     0.624     1.241
   442   8 o        1.607    -0.688    27.407     7.066
   443   1 h        0.803     0.349     0.590     1.206
   444   1 h        0.803     0.350     0.588     1.205
   445   8 o        1.609    -0.674    27.032     7.017
   446   1 h        0.804     0.359     0.568     1.184
   447   1 h        0.805     0.322     0.659     1.275
   448   8 o        1.608    -0.677    27.104     7.026
   449   1 h        0.802     0.359     0.567     1.183
   450   1 h        0.806     0.307     0.701     1.315
   451   8 o        1.608    -0.660    26.664     6.969
   452   1 h        0.804     0.331     0.634     1.250
   453   1 h        0.804     0.337     0.621     1.237
   454   8 o        1.606    -0.692    27.490     7.076
   455   1 h        0.803     0.345     0.599     1.216
   456   1 h        0.803     0.354     0.578     1.195
   457   8 o        1.607    -0.670    26.918     7.002
   458   1 h        0.803     0.349     0.590     1.207
   459   1 h        0.803     0.331     0.636     1.253
   460   8 o        1.608    -0.676    27.089     7.024
   461   1 h        0.805     0.343     0.604     1.221
   462   1 h        0.803     0.352     0.584     1.200
   463   8 o        1.610    -0.657    26.586     6.959
   464   1 h        0.805     0.334     0.626     1.243
   465   1 h        0.805     0.326     0.646     1.263
   466   8 o        1.608    -0.684    27.301     7.052
   467   1 h        0.804     0.327     0.646     1.262
   468   1 h        0.804     0.338     0.618     1.235
   469   8 o        1.607    -0.685    27.306     7.053
   470   1 h        0.803     0.362     0.562     1.177
   471   1 h        0.804     0.344     0.602     1.219
   472   8 o        1.607    -0.675    27.062     7.021
   473   1 h        0.802     0.342     0.607     1.224
   474   1 h        0.805     0.333     0.630     1.247
   475   8 o        1.606    -0.678    27.134     7.030
   476   1 h        0.804     0.341     0.609     1.226
   477   1 h        0.803     0.334     0.627     1.244
   478   8 o        1.608    -0.687    27.362     7.060
   479   1 h        0.803     0.354     0.579     1.195
   480   1 h        0.805     0.323     0.656     1.272
   481   8 o        1.606    -0.711    28.011     7.143
   482   1 h        0.804     0.331     0.634     1.251
   483   1 h        0.802     0.359     0.569     1.185
   484   8 o        1.607    -0.656    26.561     6.956
   485   1 h        0.806     0.305     0.705     1.319
   486   1 h        0.802     0.346     0.597     1.214
   487   8 o        1.608    -0.680    27.172     7.035
   488   1 h        0.806     0.307     0.700     1.315
   489   1 h        0.802     0.357     0.572     1.188
   490   8 o        1.607    -0.682    27.245     7.045
   491   1 h        0.801     0.356     0.574     1.190
   492   1 h        0.806     0.314     0.679     1.295
   493   8 o        1.606    -0.687    27.360     7.059
   494   1 h        0.803     0.330     0.638     1.255
   495   1 h        0.803     0.354     0.579     1.196
   496   8 o        1.609    -0.649    26.387     6.933
   497   1 h        0.805     0.339     0.614     1.230
   498   1 h        0.805     0.335     0.626     1.242
   499   8 o        1.609    -0.671    26.952     7.007
   500   1 h        0.804     0.344     0.604     1.220
   501   1 h        0.805     0.341     0.610     1.227
   502   8 o        1.609    -0.656    26.563     6.956
   503   1 h        0.805     0.334     0.627     1.244
   504   1 h        0.804     0.341     0.609     1.226
   505   8 o        1.608    -0.669    26.896     6.999
   506   1 h        0.805     0.332     0.632     1.249
   507   1 h        0.803     0.337     0.619     1.236
   508   8 o        1.608    -0.674    27.029     7.017
   509   1 h        0.804     0.345     0.600     1.217
   510   1 h        0.803     0.355     0.577     1.194
   511   8 o        1.607    -0.682    27.232     7.043
   512   1 h        0.805     0.325     0.650     1.267
   513   1 h        0.802     0.340     0.612     1.229
   514   8 o        1.607    -0.703    27.802     7.116
   515   1 h        0.802     0.362     0.560     1.176
   516   1 h        0.803     0.336     0.621     1.238
   517   8 o        1.608    -0.674    27.032     7.017
   518   1 h        0.803     0.348     0.593     1.210
   519   1 h        0.805     0.322     0.659     1.275
   520   8 o        1.607    -0.676    27.068     7.022
   521   1 h        0.803     0.336     0.623     1.240
   522   1 h        0.804     0.320     0.663     1.279
   523   8 o        1.609    -0.691    27.481     7.075
   524   1 h        0.805     0.323     0.657     1.273
   525   1 h        0.804     0.350     0.588     1.205
   526   8 o        1.606    -0.697    27.620     7.093
   527   1 h        0.803     0.341     0.611     1.228
   528   1 h        0.803     0.338     0.617     1.234
   529   8 o        1.608    -0.664    26.770     6.983
   530   1 h        0.804     0.327     0.645     1.261
   531   1 h        0.804     0.329     0.640     1.256
   532   8 o        1.607    -0.676    27.070     7.022
   533   1 h        0.803     0.358     0.571     1.187
   534   1 h        0.803     0.329     0.640     1.256
   535   8 o        1.607    -0.685    27.315     7.054
   536   1 h        0.805     0.333     0.629     1.246
   537   1 h        0.802     0.358     0.570     1.186
   538   8 o        1.609    -0.677    27.095     7.025
   539   1 h        0.804     0.340     0.613     1.230
   540   1 h        0.805     0.333     0.629     1.245
   541   8 o        1.607    -0.705    27.832     7.120
   542   1 h        0.804     0.339     0.615     1.232
   543   1 h        0.803     0.344     0.603     1.220
   544   8 o        1.609    -0.664    26.777     6.984
   545   1 h        0.804     0.337     0.621     1.237
   546   1 h        0.805     0.324     0.654     1.270
   547   8 o        1.607    -0.683    27.258     7.046
   548   1 h        0.803     0.333     0.630     1.247
   549   1 h        0.804     0.340     0.612     1.229
   550   8 o        1.607    -0.660    26.671     6.970
   551   1 h        0.805     0.320     0.663     1.279
   552   1 h        0.802     0.340     0.611     1.228
   553   8 o        1.607    -0.665    26.805     6.988
   554   1 h        0.802     0.355     0.577     1.193
   555   1 h        0.806     0.317     0.673     1.288
   556   8 o        1.609    -0.651    26.443     6.940
   557   1 h        0.804     0.329     0.639     1.256
   558   1 h        0.805     0.324     0.653     1.269
   559   8 o        1.609    -0.660    26.668     6.970
   560   1 h        0.805     0.333     0.630     1.247
   561   1 h        0.805     0.333     0.628     1.245
   562   8 o        1.608    -0.677    27.101     7.026
   563   1 h        0.803     0.359     0.567     1.183
   564   1 h        0.805     0.340     0.611     1.228
   565   8 o        1.608    -0.666    26.811     6.988
   566   1 h        0.804     0.329     0.641     1.258
   567   1 h        0.804     0.358     0.570     1.186
   568   8 o        1.606    -0.687    27.363     7.060
   569   1 h        0.804     0.321     0.661     1.277
   570   1 h        0.802     0.348     0.593     1.210
   571   8 o        1.606    -0.705    27.835     7.120
   572   1 h        0.803     0.353     0.582     1.198
   573   1 h        0.804     0.349     0.591     1.208
   574   8 o        1.610    -0.679    27.170     7.035
   575   1 h        0.804     0.349     0.590     1.207
   576   1 h        0.804     0.338     0.617     1.234
   577   8 o        1.609    -0.643    26.235     6.913
   578   1 h        0.806     0.316     0.676     1.291
   579   1 h        0.804     0.349     0.591     1.207
   580   8 o        1.610    -0.649    26.390     6.933
   581   1 h        0.805     0.326     0.648     1.264
   582   1 h        0.805     0.329     0.641     1.257
   583   8 o        1.608    -0.694    27.547     7.084
   584   1 h        0.804     0.348     0.593     1.209
   585   1 h        0.804     0.341     0.609     1.226
   586   8 o        1.609    -0.671    26.960     7.008
   587   1 h        0.804     0.345     0.601     1.218
   588   1 h        0.805     0.325     0.650     1.267
   589   8 o        1.606    -0.697    27.632     7.095
   590   1 h        0.803     0.346     0.599     1.216
   591   1 h        0.803     0.340     0.612     1.229
   592   8 o        1.609    -0.666    26.823     6.990
   593   1 h        0.805     0.336     0.621     1.238
   594   1 h        0.804     0.352     0.584     1.200
   595   8 o        1.606    -0.668    26.870     6.996
   596   1 h        0.806     0.310     0.691     1.306
   597   1 h        0.801     0.346     0.598     1.215
   598   8 o        1.607    -0.671    26.941     7.005
   599   1 h        0.803     0.330     0.637     1.254
   600   1 h        0.804     0.335     0.625     1.241
   601   8 o        1.607    -0.685    27.304     7.052
   602   1 h        0.805     0.313     0.684     1.299
   603   1 h        0.802     0.362     0.562     1.178
   604   8 o        1.609    -0.660    26.670     6.970
   605   1 h        0.805     0.323     0.656     1.272
   606   1 h        0.804     0.351     0.585     1.201
   607   8 o        1.608    -0.665    26.795     6.986
   608   1 h        0.804     0.339     0.614     1.231
   609   1 h        0.804     0.331     0.634     1.251
   610   8 o        1.609    -0.664    26.763     6.982
   611   1 h        0.805     0.329     0.639     1.256
   612   1 h        0.804     0.335     0.625     1.242
   613   8 o        1.609    -0.663    26.751     6.981
   614   1 h        0.805     0.328     0.642     1.259
   615   1 h        0.804     0.334     0.628     1.245
   616   8 o        1.608    -0.674    27.025     7.016
   617   1 h        0.802     0.364     0.556     1.171
   618   1 h        0.805     0.310     0.692     1.306
   619   8 o        1.606    -0.692    27.504     7.078
   620   1 h        0.803     0.330     0.639     1.255
   621   1 h        0.803     0.355     0.577     1.193
   622   8 o        1.605    -0.676    27.094     7.025
   623   1 h        0.802     0.332     0.632     1.249
   624   1 h        0.804     0.333     0.630     1.246
   625   8 o        1.607    -0.679    27.154     7.033
   626   1 h        0.805     0.313     0.683     1.298
   627   1 h        0.803     0.361     0.562     1.178
   628   8 o        1.609    -0.658    26.616     6.963
   629   1 h        0.805     0.314     0.682     1.297
   630   1 h        0.805     0.313     0.685     1.300
   631   8 o        1.607    -0.691    27.480     7.075
   632   1 h        0.803     0.341     0.610     1.227
   633   1 h        0.804     0.354     0.578     1.194
   634   8 o        1.609    -0.663    26.733     6.978
   635   1 h        0.804     0.332     0.632     1.249
   636   1 h        0.805     0.337     0.618     1.235
   637   8 o        1.608    -0.680    27.175     7.036
   638   1 h        0.803     0.357     0.572     1.188
   639   1 h        0.805     0.320     0.663     1.279
   640   8 o        1.609    -0.667    26.846     6.993
   641   1 h        0.805     0.333     0.629     1.246
   642   1 h        0.804     0.314     0.680     1.295
   643   8 o        1.608    -0.683    27.258     7.046
   644   1 h        0.803     0.341     0.610     1.226
   645   1 h        0.804     0.326     0.647     1.264
   646   8 o        1.608    -0.680    27.194     7.038
   647   1 h        0.803     0.352     0.583     1.199
   648   1 h        0.805     0.329     0.639     1.256
   649   8 o        1.608    -0.675    27.047     7.019
   650   1 h        0.803     0.350     0.588     1.205
   651   1 h        0.804     0.317     0.673     1.289
   652   8 o        1.608    -0.667    26.845     6.993
   653   1 h        0.804     0.332     0.633     1.250
   654   1 h        0.805     0.336     0.622     1.239
   655   8 o        1.606    -0.694    27.563     7.086
   656   1 h        0.805     0.322     0.660     1.276
   657   1 h        0.802     0.357     0.573     1.189
   658   8 o        1.608    -0.674    27.018     7.015
   659   1 h        0.805     0.331     0.634     1.251
   660   1 h        0.803     0.341     0.610     1.227
   661   8 o        1.609    -0.673    27.001     7.013
   662   1 h        0.804     0.364     0.556     1.171
   663   1 h        0.804     0.338     0.617     1.234
   664   8 o        1.607    -0.661    26.683     6.972
   665   1 h        0.806     0.310     0.691     1.306
   666   1 h        0.802     0.357     0.572     1.188
   667   8 o        1.607    -0.698    27.670     7.099
   668   1 h        0.802     0.358     0.571     1.187
   669   1 h        0.805     0.316     0.675     1.290
   670   8 o        1.607    -0.677    27.105     7.027
   671   1 h        0.803     0.356     0.575     1.192
   672   1 h        0.805     0.339     0.615     1.232
   673   8 o        1.607    -0.692    27.512     7.079
   674   1 h        0.803     0.355     0.577     1.193
   675   1 h        0.803     0.360     0.566     1.182
   676   8 o        1.606    -0.674    27.028     7.017
   677   1 h        0.801     0.351     0.587     1.204
   678   1 h        0.806     0.313     0.683     1.298
   679   8 o        1.604    -0.672    26.981     7.010
   680   1 h        0.806     0.311     0.690     1.305
   681   1 h        0.801     0.351     0.586     1.203
   682   8 o        1.607    -0.668    26.883     6.998
   683   1 h        0.804     0.355     0.577     1.193
   684   1 h        0.803     0.334     0.628     1.245
   685   8 o        1.607    -0.690    27.436     7.069
   686   1 h        0.805     0.323     0.655     1.271
   687   1 h        0.803     0.358     0.569     1.185
   688   8 o        1.608    -0.669    26.893     6.999
   689   1 h        0.804     0.328     0.641     1.258
   690   1 h        0.804     0.349     0.591     1.208
   691   8 o        1.608    -0.665    26.806     6.988
   692   1 h        0.805     0.334     0.627     1.244
   693   1 h        0.804     0.347     0.595     1.212
   694   8 o        1.608    -0.690    27.455     7.072
   695   1 h        0.803     0.356     0.575     1.191
   696   1 h        0.805     0.322     0.658     1.274
   697   8 o        1.608    -0.676    27.093     7.025
   698   1 h        0.804     0.337     0.621     1.238
   699   1 h        0.805     0.330     0.636     1.253
   700   8 o        1.606    -0.685    27.315     7.054
   701   1 h        0.802     0.370     0.543     1.158
   702   1 h        0.804     0.326     0.648     1.264
   703   8 o        1.607    -0.677    27.096     7.025
   704   1 h        0.804     0.327     0.645     1.262
   705   1 h        0.803     0.359     0.567     1.183
   706   8 o        1.608    -0.672    26.989     7.012
   707   1 h        0.805     0.332     0.632     1.249
   708   1 h        0.803     0.347     0.595     1.212
   709   8 o        1.607    -0.682    27.246     7.045
   710   1 h        0.805     0.316     0.673     1.289
   711   1 h        0.802     0.356     0.575     1.192
   712   8 o        1.607    -0.693    27.523     7.081
   713   1 h        0.804     0.332     0.632     1.249
   714   1 h        0.803     0.349     0.591     1.208
   715   8 o        1.608    -0.667    26.842     6.992
   716   1 h        0.802     0.352     0.583     1.200
   717   1 h        0.806     0.316     0.674     1.290
   718   8 o        1.608    -0.685    27.328     7.055
   719   1 h        0.805     0.317     0.672     1.287
   720   1 h        0.803     0.356     0.574     1.191
   721   8 o        1.608    -0.659    26.632     6.965
   722   1 h        0.805     0.324     0.654     1.270
   723   1 h        0.803     0.348     0.594     1.210
   724   8 o        1.605    -0.688    27.403     7.065
   725   1 h        0.805     0.332     0.632     1.249
   726   1 h        0.801     0.360     0.565     1.181
   727   8 o        1.608    -0.694    27.545     7.083
   728   1 h        0.803     0.338     0.618     1.235
   729   1 h        0.804     0.340     0.612     1.229
   730   8 o        1.609    -0.655    26.551     6.954
   731   1 h        0.804     0.331     0.634     1.251
   732   1 h        0.804     0.336     0.623     1.240
   733   8 o        1.609    -0.680    27.183     7.037
   734   1 h        0.804     0.334     0.628     1.245
   735   1 h        0.804     0.336     0.622     1.238
   736   8 o        1.610    -0.675    27.061     7.021
   737   1 h        0.804     0.344     0.603     1.220
   738   1 h        0.804     0.348     0.592     1.209
   739   8 o        1.609    -0.649    26.392     6.934
   740   1 h        0.804     0.342     0.608     1.225
   741   1 h        0.805     0.324     0.653     1.269
   742   8 o        1.608    -0.658    26.618     6.963
   743   1 h        0.804     0.326     0.647     1.263
   744   1 h        0.804     0.327     0.646     1.263
   745   8 o        1.609    -0.653    26.478     6.945
   746   1 h        0.804     0.343     0.605     1.222
   747   1 h        0.805     0.315     0.678     1.293
   748   8 o        1.605    -0.691    27.468     7.073
   749   1 h        0.803     0.333     0.631     1.247
   750   1 h        0.802     0.363     0.560     1.175
   751   8 o        1.610    -0.645    26.281     6.919
   752   1 h        0.805     0.322     0.658     1.274
   753   1 h        0.805     0.330     0.638     1.255
   754   8 o        1.611    -0.650    26.412     6.936
   755   1 h        0.806     0.316     0.674     1.290
   756   1 h        0.805     0.329     0.639     1.255

 Mol. C6AA /au·bohr⁶  :    2899041.853493
 Mol. C8AA /au·bohr⁸  :   52597496.342630
 Mol. α(0) /au        :       2392.989172


Wiberg/Mayer (AO) data.
largest (>0.10) Wiberg bond orders for each atom

 ---------------------------------------------------------------------------
     #   Z sym  total        # sym  WBO       # sym  WBO       # sym  WBO
 ---------------------------------------------------------------------------
     1   8 o    1.832 --     3 h    0.828     2 h    0.801
     2   1 h    0.885 --     1 o    0.801
     3   1 h    0.883 --     1 o    0.828
     4   8 o    1.856 --     6 h    0.841     5 h    0.807
     5   1 h    0.877 --     4 o    0.807
     6   1 h    0.882 --     4 o    0.841
     7   8 o    1.850 --     9 h    0.832     8 h    0.825
     8   1 h    0.886 --     7 o    0.825
     9   1 h    0.883 --     7 o    0.832
    10   8 o    1.865 --    12 h    0.822    11 h    0.801
    11   1 h    0.871 --    10 o    0.801
    12   1 h    0.876 --    10 o    0.822
    13   8 o    1.851 --    14 h    0.837    15 h    0.833
    14   1 h    0.883 --    13 o    0.837
    15   1 h    0.884 --    13 o    0.833
    16   8 o    1.893 --    17 h    0.810    18 h    0.789
    17   1 h    0.868 --    16 o    0.810
    18   1 h    0.873 --    16 o    0.789
    19   8 o    1.828 --    21 h    0.865    20 h    0.833
    20   1 h    0.883 --    19 o    0.833
    21   1 h    0.889 --    19 o    0.865
    22   8 o    1.839 --    23 h    0.826    24 h    0.812
    23   1 h    0.881 --    22 o    0.826
    24   1 h    0.878 --    22 o    0.812
    25   8 o    1.813 --    27 h    0.846    26 h    0.825
    26   1 h    0.887 --    25 o    0.825
    27   1 h    0.886 --    25 o    0.846
    28   8 o    1.844 --    29 h    0.842    30 h    0.814
    29   1 h    0.890 --    28 o    0.842
    30   1 h    0.890 --    28 o    0.814
    31   8 o    1.875 --    33 h    0.819    32 h    0.810
    32   1 h    0.878 --    31 o    0.810
    33   1 h    0.874 --    31 o    0.819
    34   8 o    1.888 --    35 h    0.841    36 h    0.790
    35   1 h    0.882 --    34 o    0.841
    36   1 h    0.871 --    34 o    0.790
    37   8 o    1.836 --    38 h    0.815    39 h    0.791
    38   1 h    0.876 --    37 o    0.815
    39   1 h    0.879 --    37 o    0.791
    40   8 o    1.838 --    41 h    0.843    42 h    0.841
    41   1 h    0.887 --    40 o    0.843
    42   1 h    0.887 --    40 o    0.841
    43   8 o    1.796 --    45 h    0.845    44 h    0.819
    44   1 h    0.886 --    43 o    0.819
    45   1 h    0.889 --    43 o    0.845
    46   8 o    1.875 --    48 h    0.835    47 h    0.771
    47   1 h    0.868 --    46 o    0.771
    48   1 h    0.894 --    46 o    0.835
    49   8 o    1.815 --    51 h    0.831    50 h    0.821
    50   1 h    0.883 --    49 o    0.821
    51   1 h    0.890 --    49 o    0.831
    52   8 o    1.835 --    54 h    0.860    53 h    0.802
    53   1 h    0.886 --    52 o    0.802
    54   1 h    0.891 --    52 o    0.860
    55   8 o    1.861 --    57 h    0.831    56 h    0.792
    56   1 h    0.875 --    55 o    0.792
    57   1 h    0.892 --    55 o    0.831
    58   8 o    1.847 --    59 h    0.853    60 h    0.833
    59   1 h    0.884 --    58 o    0.853
    60   1 h    0.894 --    58 o    0.833
    61   8 o    1.814 --    62 h    0.851    63 h    0.818
    62   1 h    0.891 --    61 o    0.851
    63   1 h    0.883 --    61 o    0.818
    64   8 o    1.871 --    66 h    0.841    65 h    0.818
    65   1 h    0.880 --    64 o    0.818
    66   1 h    0.878 --    64 o    0.841
    67   8 o    1.836 --    68 h    0.857    69 h    0.803
    68   1 h    0.892 --    67 o    0.857
    69   1 h    0.880 --    67 o    0.803
    70   8 o    1.837 --    71 h    0.831    72 h    0.817
    71   1 h    0.886 --    70 o    0.831
    72   1 h    0.883 --    70 o    0.817
    73   8 o    1.809 --    75 h    0.851    74 h    0.845
    74   1 h    0.887 --    73 o    0.845
    75   1 h    0.891 --    73 o    0.851
    76   8 o    1.864 --    78 h    0.821    77 h    0.814
    77   1 h    0.884 --    76 o    0.814
    78   1 h    0.883 --    76 o    0.821
    79   8 o    1.813 --    81 h    0.834    80 h    0.800
    80   1 h    0.876 --    79 o    0.800
    81   1 h    0.887 --    79 o    0.834
    82   8 o    1.859 --    84 h    0.811    83 h    0.807
    83   1 h    0.871 --    82 o    0.807
    84   1 h    0.875 --    82 o    0.811
    85   8 o    1.864 --    87 h    0.807    86 h    0.805
    86   1 h    0.874 --    85 o    0.805
    87   1 h    0.878 --    85 o    0.807
    88   8 o    1.865 --    90 h    0.807    89 h    0.802
    89   1 h    0.879 --    88 o    0.802
    90   1 h    0.881 --    88 o    0.807
    91   8 o    1.881 --    92 h    0.841    93 h    0.781
    92   1 h    0.894 --    91 o    0.841
    93   1 h    0.875 --    91 o    0.781
    94   8 o    1.873 --    96 h    0.842    95 h    0.801
    95   1 h    0.877 --    94 o    0.801
    96   1 h    0.878 --    94 o    0.842
    97   8 o    1.813 --    99 h    0.829    98 h    0.804
    98   1 h    0.881 --    97 o    0.804
    99   1 h    0.882 --    97 o    0.829
   100   8 o    1.820 --   101 h    0.853   102 h    0.832
   101   1 h    0.894 --   100 o    0.853
   102   1 h    0.881 --   100 o    0.832
   103   8 o    1.809 --   104 h    0.848   105 h    0.801
   104   1 h    0.885 --   103 o    0.848
   105   1 h    0.881 --   103 o    0.801
   106   8 o    1.845 --   108 h    0.780   107 h    0.774
   107   1 h    0.873 --   106 o    0.774
   108   1 h    0.872 --   106 o    0.780
   109   8 o    1.821 --   110 h    0.849   111 h    0.832
   110   1 h    0.889 --   109 o    0.849
   111   1 h    0.894 --   109 o    0.832
   112   8 o    1.862 --   113 h    0.844   114 h    0.805
   113   1 h    0.896 --   112 o    0.844
   114   1 h    0.878 --   112 o    0.805
   115   8 o    1.878 --   117 h    0.801   116 h    0.797
   116   1 h    0.878 --   115 o    0.797
   117   1 h    0.878 --   115 o    0.801
   118   8 o    1.891 --   120 h    0.823   119 h    0.798
   119   1 h    0.865 --   118 o    0.798
   120   1 h    0.886 --   118 o    0.823
   121   8 o    1.868 --   122 h    0.833   123 h    0.824
   122   1 h    0.879 --   121 o    0.833
   123   1 h    0.877 --   121 o    0.824
   124   8 o    1.862 --   125 h    0.839   126 h    0.783
   125   1 h    0.880 --   124 o    0.839
   126   1 h    0.871 --   124 o    0.783
   127   8 o    1.808 --   128 h    0.872   129 h    0.778
   128   1 h    0.901 --   127 o    0.872
   129   1 h    0.866 --   127 o    0.778
   130   8 o    1.850 --   131 h    0.815   132 h    0.805
   131   1 h    0.876 --   130 o    0.815
   132   1 h    0.880 --   130 o    0.805
   133   8 o    1.845 --   135 h    0.799   134 h    0.791
   134   1 h    0.873 --   133 o    0.791
   135   1 h    0.883 --   133 o    0.799
   136   8 o    1.887 --   137 h    0.849   138 h    0.789
   137   1 h    0.888 --   136 o    0.849
   138   1 h    0.868 --   136 o    0.789
   139   8 o    1.867 --   140 h    0.855   141 h    0.799
   140   1 h    0.893 --   139 o    0.855
   141   1 h    0.868 --   139 o    0.799
   142   8 o    1.819 --   143 h    0.861   144 h    0.850
   143   1 h    0.891 --   142 o    0.861
   144   1 h    0.884 --   142 o    0.850
   145   8 o    1.845 --   147 h    0.848   146 h    0.805
   146   1 h    0.887 --   145 o    0.805
   147   1 h    0.887 --   145 o    0.848
   148   8 o    1.909 --   149 h    0.832   150 h    0.789
   149   1 h    0.881 --   148 o    0.832
   150   1 h    0.870 --   148 o    0.789
   151   8 o    1.897 --   152 h    0.828   153 h    0.771
   152   1 h    0.887 --   151 o    0.828
   153   1 h    0.871 --   151 o    0.771
   154   8 o    1.871 --   156 h    0.843   155 h    0.817
   155   1 h    0.883 --   154 o    0.817
   156   1 h    0.895 --   154 o    0.843
   157   8 o    1.847 --   159 h    0.844   158 h    0.806
   158   1 h    0.880 --   157 o    0.806
   159   1 h    0.890 --   157 o    0.844
   160   8 o    1.809 --   161 h    0.887   162 h    0.817
   161   1 h    0.897 --   160 o    0.887
   162   1 h    0.885 --   160 o    0.817
   163   8 o    1.860 --   165 h    0.840   164 h    0.836
   164   1 h    0.885 --   163 o    0.836
   165   1 h    0.879 --   163 o    0.840
   166   8 o    1.885 --   168 h    0.847   167 h    0.843
   167   1 h    0.885 --   166 o    0.843
   168   1 h    0.879 --   166 o    0.847
   169   8 o    1.853 --   171 h    0.806   170 h    0.770
   170   1 h    0.874 --   169 o    0.770
   171   1 h    0.877 --   169 o    0.806
   172   8 o    1.822 --   174 h    0.857   173 h    0.791
   173   1 h    0.875 --   172 o    0.791
   174   1 h    0.895 --   172 o    0.857
   175   8 o    1.890 --   177 h    0.849   176 h    0.773
   176   1 h    0.869 --   175 o    0.773
   177   1 h    0.878 --   175 o    0.849
   178   8 o    1.802 --   180 h    0.893   179 h    0.758
   179   1 h    0.869 --   178 o    0.758   328 o    0.104
   180   1 h    0.905 --   178 o    0.893
   181   8 o    1.884 --   182 h    0.836   183 h    0.792
   182   1 h    0.889 --   181 o    0.836
   183   1 h    0.870 --   181 o    0.792
   184   8 o    1.854 --   185 h    0.852   186 h    0.837
   185   1 h    0.885 --   184 o    0.852
   186   1 h    0.878 --   184 o    0.837
   187   8 o    1.826 --   188 h    0.806   189 h    0.797
   188   1 h    0.881 --   187 o    0.806
   189   1 h    0.888 --   187 o    0.797
   190   8 o    1.812 --   191 h    0.855   192 h    0.803
   191   1 h    0.895 --   190 o    0.855
   192   1 h    0.879 --   190 o    0.803
   193   8 o    1.829 --   195 h    0.844   194 h    0.802
   194   1 h    0.882 --   193 o    0.802
   195   1 h    0.891 --   193 o    0.844
   196   8 o    1.818 --   197 h    0.903   198 h    0.826
   197   1 h    0.907 --   196 o    0.903
   198   1 h    0.883 --   196 o    0.826
   199   8 o    1.881 --   201 h    0.815   200 h    0.809
   200   1 h    0.880 --   199 o    0.809
   201   1 h    0.881 --   199 o    0.815
   202   8 o    1.867 --   203 h    0.780   204 h    0.762
   203   1 h    0.876 --   202 o    0.780
   204   1 h    0.870 --   202 o    0.762
   205   8 o    1.846 --   207 h    0.885   206 h    0.764
   206   1 h    0.867 --   205 o    0.764
   207   1 h    0.899 --   205 o    0.885
   208   8 o    1.837 --   210 h    0.846   209 h    0.802
   209   1 h    0.878 --   208 o    0.802
   210   1 h    0.896 --   208 o    0.846
   211   8 o    1.805 --   212 h    0.861   213 h    0.831
   212   1 h    0.897 --   211 o    0.861
   213   1 h    0.889 --   211 o    0.831
   214   8 o    1.861 --   216 h    0.850   215 h    0.797
   215   1 h    0.874 --   214 o    0.797
   216   1 h    0.883 --   214 o    0.850
   217   8 o    1.870 --   218 h    0.809   219 h    0.797
   218   1 h    0.870 --   217 o    0.809
   219   1 h    0.878 --   217 o    0.797
   220   8 o    1.856 --   221 h    0.835   222 h    0.825
   221   1 h    0.887 --   220 o    0.835
   222   1 h    0.890 --   220 o    0.825
   223   8 o    1.838 --   224 h    0.840   225 h    0.840
   224   1 h    0.890 --   223 o    0.840
   225   1 h    0.880 --   223 o    0.840
   226   8 o    1.840 --   228 h    0.861   227 h    0.848
   227   1 h    0.889 --   226 o    0.848
   228   1 h    0.886 --   226 o    0.861
   229   8 o    1.844 --   230 h    0.839   231 h    0.837
   230   1 h    0.884 --   229 o    0.839
   231   1 h    0.880 --   229 o    0.837
   232   8 o    1.837 --   234 h    0.855   233 h    0.849
   233   1 h    0.887 --   232 o    0.849
   234   1 h    0.885 --   232 o    0.855
   235   8 o    1.846 --   236 h    0.838   237 h    0.784
   236   1 h    0.897 --   235 o    0.838
   237   1 h    0.870 --   235 o    0.784
   238   8 o    1.887 --   239 h    0.798   240 h    0.780
   239   1 h    0.876 --   238 o    0.798
   240   1 h    0.871 --   238 o    0.780
   241   8 o    1.818 --   242 h    0.854   243 h    0.822
   242   1 h    0.890 --   241 o    0.854
   243   1 h    0.881 --   241 o    0.822
   244   8 o    1.819 --   245 h    0.842   246 h    0.814
   245   1 h    0.885 --   244 o    0.842
   246   1 h    0.890 --   244 o    0.814
   247   8 o    1.894 --   249 h    0.844   248 h    0.790
   248   1 h    0.861 --   247 o    0.790
   249   1 h    0.882 --   247 o    0.844
   250   8 o    1.814 --   251 h    0.850   252 h    0.794
   251   1 h    0.895 --   250 o    0.850
   252   1 h    0.874 --   250 o    0.794
   253   8 o    1.824 --   254 h    0.841   255 h    0.790
   254   1 h    0.895 --   253 o    0.841
   255   1 h    0.873 --   253 o    0.790
   256   8 o    1.814 --   258 h    0.892   257 h    0.836
   257   1 h    0.885 --   256 o    0.836
   258   1 h    0.898 --   256 o    0.892
   259   8 o    1.834 --   261 h    0.847   260 h    0.816
   260   1 h    0.871 --   259 o    0.816
   261   1 h    0.898 --   259 o    0.847
   262   8 o    1.849 --   263 h    0.824   264 h    0.788
   263   1 h    0.879 --   262 o    0.824
   264   1 h    0.877 --   262 o    0.788
   265   8 o    1.828 --   267 h    0.866   266 h    0.829
   266   1 h    0.872 --   265 o    0.829
   267   1 h    0.895 --   265 o    0.866
   268   8 o    1.844 --   269 h    0.862   270 h    0.833
   269   1 h    0.892 --   268 o    0.862
   270   1 h    0.876 --   268 o    0.833
   271   8 o    1.862 --   272 h    0.789   273 h    0.778
   272   1 h    0.877 --   271 o    0.789
   273   1 h    0.876 --   271 o    0.778
   274   8 o    1.830 --   275 h    0.850   276 h    0.836
   275   1 h    0.887 --   274 o    0.850
   276   1 h    0.887 --   274 o    0.836
   277   8 o    1.878 --   279 h    0.828   278 h    0.773
   278   1 h    0.867 --   277 o    0.773
   279   1 h    0.890 --   277 o    0.828
   280   8 o    1.871 --   282 h    0.834   281 h    0.833
   281   1 h    0.888 --   280 o    0.833
   282   1 h    0.886 --   280 o    0.834
   283   8 o    1.846 --   284 h    0.862   285 h    0.839
   284   1 h    0.886 --   283 o    0.862
   285   1 h    0.882 --   283 o    0.839
   286   8 o    1.846 --   288 h    0.864   287 h    0.822
   287   1 h    0.875 --   286 o    0.822
   288   1 h    0.892 --   286 o    0.864
   289   8 o    1.823 --   291 h    0.890   290 h    0.804
   290   1 h    0.869 --   289 o    0.804
   291   1 h    0.904 --   289 o    0.890
   292   8 o    1.835 --   294 h    0.860   293 h    0.827
   293   1 h    0.881 --   292 o    0.827
   294   1 h    0.887 --   292 o    0.860
   295   8 o    1.861 --   297 h    0.841   296 h    0.801
   296   1 h    0.873 --   295 o    0.801
   297   1 h    0.894 --   295 o    0.841
   298   8 o    1.902 --   299 h    0.867   300 h    0.827
   299   1 h    0.889 --   298 o    0.867
   300   1 h    0.878 --   298 o    0.827
   301   8 o    1.892 --   303 h    0.823   302 h    0.791
   302   1 h    0.872 --   301 o    0.791
   303   1 h    0.881 --   301 o    0.823
   304   8 o    1.812 --   305 h    0.875   306 h    0.853
   305   1 h    0.894 --   304 o    0.875
   306   1 h    0.889 --   304 o    0.853
   307   8 o    1.842 --   308 h    0.845   309 h    0.832
   308   1 h    0.893 --   307 o    0.845
   309   1 h    0.891 --   307 o    0.832
   310   8 o    1.882 --   311 h    0.837   312 h    0.777
   311   1 h    0.889 --   310 o    0.837
   312   1 h    0.868 --   310 o    0.777
   313   8 o    1.878 --   314 h    0.843   315 h    0.810
   314   1 h    0.896 --   313 o    0.843
   315   1 h    0.871 --   313 o    0.810
   316   8 o    1.844 --   317 h    0.894   318 h    0.789
   317   1 h    0.901 --   316 o    0.894
   318   1 h    0.878 --   316 o    0.789
   319   8 o    1.840 --   320 h    0.855   321 h    0.823
   320   1 h    0.886 --   319 o    0.855
   321   1 h    0.882 --   319 o    0.823
   322   8 o    1.821 --   323 h    0.851   324 h    0.815
   323   1 h    0.891 --   322 o    0.851
   324   1 h    0.881 --   322 o    0.815
   325   8 o    1.795 --   326 h    0.846   327 h    0.842
   326   1 h    0.896 --   325 o    0.846
   327   1 h    0.881 --   325 o    0.842
   328   8 o    1.861 --   329 h    0.838   330 h    0.807   179 h    0.104
   329   1 h    0.891 --   328 o    0.838
   330   1 h    0.875 --   328 o    0.807
   331   8 o    1.828 --   332 h    0.889   333 h    0.824
   332   1 h    0.901 --   331 o    0.889
   333   1 h    0.884 --   331 o    0.824
   334   8 o    1.848 --   336 h    0.794   335 h    0.784
   335   1 h    0.887 --   334 o    0.784
   336   1 h    0.867 --   334 o    0.794
   337   8 o    1.876 --   339 h    0.827   338 h    0.819
   338   1 h    0.879 --   337 o    0.819
   339   1 h    0.877 --   337 o    0.827
   340   8 o    1.842 --   342 h    0.862   341 h    0.781
   341   1 h    0.867 --   340 o    0.781
   342   1 h    0.897 --   340 o    0.862
   343   8 o    1.825 --   344 h    0.839   345 h    0.812
   344   1 h    0.891 --   343 o    0.839
   345   1 h    0.886 --   343 o    0.812
   346   8 o    1.845 --   348 h    0.877   347 h    0.784
   347   1 h    0.880 --   346 o    0.784
   348   1 h    0.896 --   346 o    0.877
   349   8 o    1.884 --   350 h    0.833   351 h    0.820
   350   1 h    0.880 --   349 o    0.833
   351   1 h    0.887 --   349 o    0.820
   352   8 o    1.826 --   354 h    0.833   353 h    0.831
   353   1 h    0.887 --   352 o    0.831
   354   1 h    0.885 --   352 o    0.833
   355   8 o    1.842 --   356 h    0.858   357 h    0.833
   356   1 h    0.895 --   355 o    0.858
   357   1 h    0.894 --   355 o    0.833
   358   8 o    1.808 --   359 h    0.896   360 h    0.780
   359   1 h    0.904 --   358 o    0.896
   360   1 h    0.866 --   358 o    0.780
   361   8 o    1.832 --   363 h    0.870   362 h    0.766
   362   1 h    0.863 --   361 o    0.766
   363   1 h    0.898 --   361 o    0.870
[...]
   370   8 o    1.797 --   372 h    0.868   371 h    0.865
   371   1 h    0.896 --   370 o    0.865
   372   1 h    0.893 --   370 o    0.868
   373   8 o    1.813 --   374 h    0.877   375 h    0.815
   374   1 h    0.899 --   373 o    0.877
   375   1 h    0.874 --   373 o    0.815
   376   8 o    1.887 --   378 h    0.797   377 h    0.776
   377   1 h    0.868 --   376 o    0.776
   378   1 h    0.874 --   376 o    0.797
   379   8 o    1.865 --   381 h    0.841   380 h    0.821
   380   1 h    0.876 --   379 o    0.821
   381   1 h    0.889 --   379 o    0.841
   382   8 o    1.855 --   384 h    0.861   383 h    0.852
   383   1 h    0.896 --   382 o    0.852
   384   1 h    0.892 --   382 o    0.861
   385   8 o    1.809 --   386 h    0.868   387 h    0.808
   386   1 h    0.898 --   385 o    0.868
   387   1 h    0.871 --   385 o    0.808
   388   8 o    1.828 --   390 h    0.850   389 h    0.821
   389   1 h    0.876 --   388 o    0.821
   390   1 h    0.898 --   388 o    0.850
   391   8 o    1.812 --   392 h    0.882   393 h    0.818
   392   1 h    0.897 --   391 o    0.882
   393   1 h    0.881 --   391 o    0.818
   394   8 o    1.830 --   396 h    0.861   395 h    0.835
   395   1 h    0.884 --   394 o    0.835
   396   1 h    0.889 --   394 o    0.861
   397   8 o    1.845 --   399 h    0.869   398 h    0.794
   398   1 h    0.870 --   397 o    0.794
   399   1 h    0.900 --   397 o    0.869
   400   8 o    1.837 --   402 h    0.864   401 h    0.800
   401   1 h    0.878 --   400 o    0.800
   402   1 h    0.896 --   400 o    0.864
   403   8 o    1.854 --   405 h    0.829   404 h    0.805
   404   1 h    0.880 --   403 o    0.805
   405   1 h    0.888 --   403 o    0.829
   406   8 o    1.848 --   408 h    0.862   407 h    0.827
   407   1 h    0.880 --   406 o    0.827
   408   1 h    0.888 --   406 o    0.862
   409   8 o    1.817 --   410 h    0.870   411 h    0.813
   410   1 h    0.898 --   409 o    0.870
   411   1 h    0.875 --   409 o    0.813
   412   8 o    1.828 --   414 h    0.826   413 h    0.809
   413   1 h    0.881 --   412 o    0.809
   414   1 h    0.886 --   412 o    0.826
   415   8 o    1.871 --   417 h    0.840   416 h    0.776
   416   1 h    0.867 --   415 o    0.776
   417   1 h    0.895 --   415 o    0.840
   418   8 o    1.826 --   420 h    0.856   419 h    0.853
   419   1 h    0.888 --   418 o    0.853
   420   1 h    0.888 --   418 o    0.856
   421   8 o    1.859 --   423 h    0.844   422 h    0.808
   422   1 h    0.879 --   421 o    0.808
   423   1 h    0.893 --   421 o    0.844
   424   8 o    1.839 --   425 h    0.895   426 h    0.821
   425   1 h    0.900 --   424 o    0.895
   426   1 h    0.882 --   424 o    0.821
   427   8 o    1.807 --   429 h    0.864   428 h    0.786
   428   1 h    0.875 --   427 o    0.786
   429   1 h    0.898 --   427 o    0.864
   430   8 o    1.846 --   432 h    0.879   431 h    0.878
   431   1 h    0.893 --   430 o    0.878
   432   1 h    0.892 --   430 o    0.879
   433   8 o    1.859 --   435 h    0.840   434 h    0.805
   434   1 h    0.879 --   433 o    0.805
   435   1 h    0.897 --   433 o    0.840
   436   8 o    1.827 --   437 h    0.885   438 h    0.785
   437   1 h    0.901 --   436 o    0.885
   438   1 h    0.863 --   436 o    0.785
   439   8 o    1.804 --   440 h    0.852   441 h    0.847
   440   1 h    0.888 --   439 o    0.852
   441   1 h    0.888 --   439 o    0.847
   442   8 o    1.874 --   443 h    0.810   444 h    0.804
   443   1 h    0.878 --   442 o    0.810
   444   1 h    0.877 --   442 o    0.804
   445   8 o    1.841 --   447 h    0.867   446 h    0.816
   446   1 h    0.871 --   445 o    0.816
   447   1 h    0.896 --   445 o    0.867
   448   8 o    1.813 --   450 h    0.898   449 h    0.797
   449   1 h    0.871 --   448 o    0.797
   450   1 h    0.906 --   448 o    0.898
   451   8 o    1.870 --   452 h    0.840   453 h    0.831
   452   1 h    0.890 --   451 o    0.840
   453   1 h    0.887 --   451 o    0.831
   454   8 o    1.887 --   455 h    0.812   456 h    0.792
   455   1 h    0.881 --   454 o    0.812
   456   1 h    0.874 --   454 o    0.792
   457   8 o    1.901 --   459 h    0.828   458 h    0.803
   458   1 h    0.878 --   457 o    0.803
   459   1 h    0.891 --   457 o    0.828
   460   8 o    1.864 --   461 h    0.847   462 h    0.806
   461   1 h    0.882 --   460 o    0.847
   462   1 h    0.876 --   460 o    0.806
   463   8 o    1.823 --   465 h    0.870   464 h    0.861
   464   1 h    0.888 --   463 o    0.861
   465   1 h    0.893 --   463 o    0.870
   466   8 o    1.806 --   467 h    0.854   468 h    0.828
   467   1 h    0.893 --   466 o    0.854
   468   1 h    0.886 --   466 o    0.828
   469   8 o    1.889 --   471 h    0.828   470 h    0.801
   470   1 h    0.869 --   469 o    0.801
   471   1 h    0.881 --   469 o    0.828
   472   8 o    1.840 --   474 h    0.849   473 h    0.815
   473   1 h    0.883 --   472 o    0.815
   474   1 h    0.889 --   472 o    0.849
   475   8 o    1.873 --   476 h    0.822   477 h    0.815
   476   1 h    0.883 --   475 o    0.822
   477   1 h    0.888 --   475 o    0.815
   478   8 o    1.811 --   480 h    0.872   479 h    0.807
   479   1 h    0.874 --   478 o    0.807
   480   1 h    0.896 --   478 o    0.872
   481   8 o    1.813 --   482 h    0.845   483 h    0.789
   482   1 h    0.890 --   481 o    0.845
   483   1 h    0.871 --   481 o    0.789
   484   8 o    1.836 --   485 h    0.904   486 h    0.798
   485   1 h    0.907 --   484 o    0.904
   486   1 h    0.880 --   484 o    0.798
   487   8 o    1.808 --   488 h    0.900   489 h    0.791
   488   1 h    0.906 --   487 o    0.900
   489   1 h    0.872 --   487 o    0.791
   490   8 o    1.827 --   492 h    0.894   491 h    0.780
   491   1 h    0.873 --   490 o    0.780
   492   1 h    0.901 --   490 o    0.894
   493   8 o    1.873 --   494 h    0.808   495 h    0.799
   494   1 h    0.891 --   493 o    0.808
   495   1 h    0.875 --   493 o    0.799
   496   8 o    1.850 --   498 h    0.870   497 h    0.853
   497   1 h    0.885 --   496 o    0.853
   498   1 h    0.888 --   496 o    0.870
   499   8 o    1.833 --   501 h    0.856   500 h    0.836
   500   1 h    0.882 --   499 o    0.836
   501   1 h    0.884 --   499 o    0.856
   502   8 o    1.853 --   503 h    0.862   504 h    0.841
   503   1 h    0.888 --   502 o    0.862
   504   1 h    0.883 --   502 o    0.841
   505   8 o    1.834 --   506 h    0.870   507 h    0.824
   506   1 h    0.890 --   505 o    0.870
   507   1 h    0.886 --   505 o    0.824
   508   8 o    1.876 --   509 h    0.841   510 h    0.799
   509   1 h    0.881 --   508 o    0.841
   510   1 h    0.874 --   508 o    0.799
   511   8 o    1.814 --   512 h    0.872   513 h    0.806
   512   1 h    0.894 --   511 o    0.872
   513   1 h    0.884 --   511 o    0.806
   514   8 o    1.856 --   516 h    0.815   515 h    0.797
   515   1 h    0.869 --   514 o    0.797
   516   1 h    0.887 --   514 o    0.815
   517   8 o    1.828 --   519 h    0.869   518 h    0.819
   518   1 h    0.879 --   517 o    0.819
   519   1 h    0.896 --   517 o    0.869
   520   8 o    1.833 --   522 h    0.857   521 h    0.816
   521   1 h    0.887 --   520 o    0.816
   522   1 h    0.897 --   520 o    0.857
   523   8 o    1.794 --   524 h    0.863   525 h    0.834
   524   1 h    0.896 --   523 o    0.863
   525   1 h    0.877 --   523 o    0.834
   526   8 o    1.815 --   528 h    0.822   527 h    0.813
   527   1 h    0.884 --   526 o    0.813
   528   1 h    0.886 --   526 o    0.822
   529   8 o    1.847 --   530 h    0.842   531 h    0.831
   530   1 h    0.893 --   529 o    0.842
   531   1 h    0.892 --   529 o    0.831
   532   8 o    1.874 --   534 h    0.831   533 h    0.812
   533   1 h    0.872 --   532 o    0.812
   534   1 h    0.892 --   532 o    0.831
   535   8 o    1.845 --   536 h    0.854   537 h    0.802
   536   1 h    0.889 --   535 o    0.854
   537   1 h    0.872 --   535 o    0.802
   538   8 o    1.819 --   540 h    0.856   539 h    0.851
   539   1 h    0.885 --   538 o    0.851
   540   1 h    0.889 --   538 o    0.856
   541   8 o    1.824 --   542 h    0.843   543 h    0.805
   542   1 h    0.885 --   541 o    0.843
   543   1 h    0.882 --   541 o    0.805
   544   8 o    1.819 --   546 h    0.876   545 h    0.832
   545   1 h    0.887 --   544 o    0.832
   546   1 h    0.895 --   544 o    0.876
   547   8 o    1.841 --   549 h    0.833   548 h    0.829
   548   1 h    0.889 --   547 o    0.829
   549   1 h    0.884 --   547 o    0.833
   550   8 o    1.854 --   551 h    0.880   552 h    0.798
   551   1 h    0.897 --   550 o    0.880
   552   1 h    0.884 --   550 o    0.798
   553   8 o    1.845 --   555 h    0.895   554 h    0.796
   554   1 h    0.874 --   553 o    0.796
   555   1 h    0.900 --   553 o    0.895
   556   8 o    1.857 --   558 h    0.866   557 h    0.834
   557   1 h    0.891 --   556 o    0.834
   558   1 h    0.895 --   556 o    0.866
   559   8 o    1.833 --   560 h    0.859   561 h    0.855
   560   1 h    0.889 --   559 o    0.859
   561   1 h    0.889 --   559 o    0.855
   562   8 o    1.891 --   564 h    0.835   563 h    0.798
   563   1 h    0.871 --   562 o    0.798
   564   1 h    0.884 --   562 o    0.835
   565   8 o    1.886 --   566 h    0.832   567 h    0.827
   566   1 h    0.892 --   565 o    0.832
   567   1 h    0.872 --   565 o    0.827
   568   8 o    1.843 --   569 h    0.854   570 h    0.787
   569   1 h    0.897 --   568 o    0.854
   570   1 h    0.879 --   568 o    0.787
   571   8 o    1.848 --   573 h    0.821   572 h    0.786
   572   1 h    0.875 --   571 o    0.786
   573   1 h    0.878 --   571 o    0.821
   574   8 o    1.849 --   576 h    0.847   575 h    0.823
   575   1 h    0.878 --   574 o    0.823
   576   1 h    0.886 --   574 o    0.847
   577   8 o    1.854 --   578 h    0.894   579 h    0.825
   578   1 h    0.900 --   577 o    0.894
   579   1 h    0.878 --   577 o    0.825
   580   8 o    1.832 --   581 h    0.870   582 h    0.852
   581   1 h    0.894 --   580 o    0.870
   582   1 h    0.892 --   580 o    0.852
   583   8 o    1.833 --   585 h    0.834   584 h    0.819
   584   1 h    0.879 --   583 o    0.819
   585   1 h    0.883 --   583 o    0.834
   586   8 o    1.819 --   588 h    0.874   587 h    0.832
   587   1 h    0.881 --   586 o    0.832
   588   1 h    0.894 --   586 o    0.874
   589   8 o    1.842 --   591 h    0.809   590 h    0.809
   590   1 h    0.881 --   589 o    0.809
   591   1 h    0.884 --   589 o    0.809
   592   8 o    1.856 --   593 h    0.849   594 h    0.831
   593   1 h    0.887 --   592 o    0.849
   594   1 h    0.876 --   592 o    0.831
   595   8 o    1.832 --   596 h    0.899   597 h    0.796
   596   1 h    0.904 --   595 o    0.899
   597   1 h    0.880 --   595 o    0.796
   598   8 o    1.853 --   600 h    0.843   599 h    0.819
   599   1 h    0.891 --   598 o    0.819
   600   1 h    0.888 --   598 o    0.843
   601   8 o    1.836 --   602 h    0.867   603 h    0.786
   602   1 h    0.902 --   601 o    0.867
   603   1 h    0.869 --   601 o    0.786
   604   8 o    1.839 --   605 h    0.882   606 h    0.825
   605   1 h    0.896 --   604 o    0.882
   606   1 h    0.876 --   604 o    0.825
   607   8 o    1.843 --   609 h    0.854   608 h    0.839
   608   1 h    0.885 --   607 o    0.839
   609   1 h    0.890 --   607 o    0.854
   610   8 o    1.833 --   611 h    0.857   612 h    0.843
   611   1 h    0.891 --   610 o    0.857
   612   1 h    0.888 --   610 o    0.843
   613   8 o    1.832 --   614 h    0.871   615 h    0.831
   614   1 h    0.892 --   613 o    0.871
   615   1 h    0.889 --   613 o    0.831
   616   8 o    1.820 --   618 h    0.886   617 h    0.804
   617   1 h    0.867 --   616 o    0.804
   618   1 h    0.904 --   616 o    0.886
   619   8 o    1.864 --   620 h    0.817   621 h    0.807
   620   1 h    0.891 --   619 o    0.817
   621   1 h    0.874 --   619 o    0.807
   622   8 o    1.861 --   624 h    0.835   623 h    0.801
   623   1 h    0.890 --   622 o    0.801
   624   1 h    0.889 --   622 o    0.835
   625   8 o    1.839 --   626 h    0.863   627 h    0.792
   626   1 h    0.902 --   625 o    0.863
   627   1 h    0.869 --   625 o    0.792
   628   8 o    1.807 --   630 h    0.862   629 h    0.854
   629   1 h    0.902 --   628 o    0.854
   630   1 h    0.902 --   628 o    0.862
   631   8 o    1.859 --   633 h    0.818   632 h    0.812
   632   1 h    0.884 --   631 o    0.812
   633   1 h    0.874 --   631 o    0.818
   634   8 o    1.828 --   635 h    0.857   636 h    0.854
   635   1 h    0.890 --   634 o    0.857
   636   1 h    0.886 --   634 o    0.854
   637   8 o    1.844 --   639 h    0.857   638 h    0.810
   638   1 h    0.872 --   637 o    0.810
   639   1 h    0.897 --   637 o    0.857
   640   8 o    1.817 --   641 h    0.850   642 h    0.848
   641   1 h    0.889 --   640 o    0.850
   642   1 h    0.901 --   640 o    0.848
   643   8 o    1.821 --   645 h    0.846   644 h    0.826
   644   1 h    0.884 --   643 o    0.826
   645   1 h    0.893 --   643 o    0.846
   646   8 o    1.838 --   648 h    0.872   647 h    0.805
   647   1 h    0.876 --   646 o    0.805
   648   1 h    0.892 --   646 o    0.872
   649   8 o    1.828 --   651 h    0.858   650 h    0.823
   650   1 h    0.877 --   649 o    0.823
   651   1 h    0.900 --   649 o    0.858
   652   8 o    1.862 --   654 h    0.838   653 h    0.826
   653   1 h    0.890 --   652 o    0.826
   654   1 h    0.887 --   652 o    0.838
   655   8 o    1.830 --   656 h    0.870   657 h    0.778
   656   1 h    0.897 --   655 o    0.870
   657   1 h    0.873 --   655 o    0.778
   658   8 o    1.832 --   659 h    0.861   660 h    0.823
   659   1 h    0.890 --   658 o    0.861
   660   1 h    0.884 --   658 o    0.823
   661   8 o    1.904 --   663 h    0.826   662 h    0.797
   662   1 h    0.867 --   661 o    0.797
   663   1 h    0.886 --   661 o    0.826
   664   8 o    1.848 --   665 h    0.900   666 h    0.792
   665   1 h    0.904 --   664 o    0.900
   666   1 h    0.872 --   664 o    0.792
   667   8 o    1.809 --   669 h    0.875   668 h    0.785
   668   1 h    0.872 --   667 o    0.785
   669   1 h    0.900 --   667 o    0.875
   670   8 o    1.870 --   672 h    0.849   671 h    0.791
   671   1 h    0.873 --   670 o    0.791
   672   1 h    0.885 --   670 o    0.849
   673   8 o    1.886 --   675 h    0.802   674 h    0.799   726 h    0.100
   674   1 h    0.874 --   673 o    0.799
   675   1 h    0.871 --   673 o    0.802
   676   8 o    1.834 --   678 h    0.893   677 h    0.783
   677   1 h    0.877 --   676 o    0.783
   678   1 h    0.902 --   676 o    0.893
   679   8 o    1.828 --   680 h    0.896   681 h    0.772
   680   1 h    0.904 --   679 o    0.896
   681   1 h    0.877 --   679 o    0.772
   682   8 o    1.881 --   684 h    0.829   683 h    0.826
   683   1 h    0.874 --   682 o    0.826
   684   1 h    0.888 --   682 o    0.829
   685   8 o    1.829 --   686 h    0.862   687 h    0.793
   686   1 h    0.895 --   685 o    0.862
   687   1 h    0.872 --   685 o    0.793
   688   8 o    1.849 --   689 h    0.840   690 h    0.823
   689   1 h    0.892 --   688 o    0.840
   690   1 h    0.878 --   688 o    0.823
   691   8 o    1.849 --   692 h    0.859   693 h    0.829
   692   1 h    0.888 --   691 o    0.859
   693   1 h    0.879 --   691 o    0.829
   694   8 o    1.823 --   696 h    0.866   695 h    0.801
   695   1 h    0.873 --   694 o    0.801
   696   1 h    0.896 --   694 o    0.866
   697   8 o    1.806 --   699 h    0.851   698 h    0.838
   698   1 h    0.887 --   697 o    0.838
   699   1 h    0.891 --   697 o    0.851
   700   8 o    1.878 --   702 h    0.845   701 h    0.780
   701   1 h    0.863 --   700 o    0.780
   702   1 h    0.894 --   700 o    0.845
   703   8 o    1.883 --   704 h    0.837   705 h    0.794
   704   1 h    0.893 --   703 o    0.837
   705   1 h    0.871 --   703 o    0.794
   706   8 o    1.858 --   707 h    0.847   708 h    0.808
   707   1 h    0.890 --   706 o    0.847
   708   1 h    0.879 --   706 o    0.808
   709   8 o    1.824 --   710 h    0.881   711 h    0.786
   710   1 h    0.900 --   709 o    0.881
   711   1 h    0.873 --   709 o    0.786
   712   8 o    1.813 --   713 h    0.849   714 h    0.808
   713   1 h    0.890 --   712 o    0.849
   714   1 h    0.878 --   712 o    0.808
   715   8 o    1.831 --   717 h    0.895   716 h    0.808
   716   1 h    0.876 --   715 o    0.808
   717   1 h    0.900 --   715 o    0.895
   718   8 o    1.818 --   719 h    0.878   720 h    0.801
   719   1 h    0.899 --   718 o    0.878
   720   1 h    0.873 --   718 o    0.801
   721   8 o    1.848 --   722 h    0.882   723 h    0.823
   722   1 h    0.895 --   721 o    0.882
   723   1 h    0.879 --   721 o    0.823
   724   8 o    1.863 --   725 h    0.863   726 h    0.765
   725   1 h    0.890 --   724 o    0.863
   726   1 h    0.870 --   724 o    0.765   673 o    0.100
   727   8 o    1.839 --   729 h    0.833   728 h    0.826
   728   1 h    0.886 --   727 o    0.826
   729   1 h    0.884 --   727 o    0.833
   730   8 o    1.861 --   732 h    0.854   731 h    0.840
   731   1 h    0.890 --   730 o    0.840
   732   1 h    0.887 --   730 o    0.854
   733   8 o    1.800 --   735 h    0.849   734 h    0.841
   734   1 h    0.889 --   733 o    0.841
   735   1 h    0.887 --   733 o    0.849
   736   8 o    1.853 --   737 h    0.841   738 h    0.840
   737   1 h    0.882 --   736 o    0.841
   738   1 h    0.879 --   736 o    0.840
   739   8 o    1.845 --   741 h    0.876   740 h    0.848
   740   1 h    0.883 --   739 o    0.848
   741   1 h    0.895 --   739 o    0.876
   742   8 o    1.854 --   744 h    0.841   743 h    0.841
   743   1 h    0.893 --   742 o    0.841
   744   1 h    0.893 --   742 o    0.841
   745   8 o    1.850 --   747 h    0.868   746 h    0.831
   746   1 h    0.882 --   745 o    0.831
   747   1 h    0.901 --   745 o    0.868
   748   8 o    1.878 --   749 h    0.819   750 h    0.783
   749   1 h    0.889 --   748 o    0.819
   750   1 h    0.868 --   748 o    0.783
   751   8 o    1.824 --   752 h    0.876   753 h    0.861
   752   1 h    0.896 --   751 o    0.876
   753   1 h    0.891 --   751 o    0.861
   754   8 o    1.810 --   755 h    0.889   756 h    0.863
   755   1 h    0.900 --   754 o    0.889
   756   1 h    0.891 --   754 o    0.863
 ---------------------------------------------------------------------------

Topologies differ in total number of bonds
Writing topology from bond orders to xtbtopo.mol

molecular dipole:
                 x           y           z       tot (Debye)
 q only:        4.073       0.760       0.833
   full:        5.000       1.556       0.892      13.501
molecular quadrupole (traceless):
                xx          xy          yy          xz          yz          zz
 q only:      113.739     -66.180      12.202      42.680      21.988    -125.941
  q+dip:      149.991     -70.395       0.810      53.869      29.583    -150.801
   full:      151.412     -69.350      -0.614      54.437      30.603    -150.798


           -------------------------------------------------
          | TOTAL ENERGY            -1283.536255320466 Eh   |
          | GRADIENT NORM               0.117032163699 Eh/α |
          | HOMO-LUMO GAP               7.227115753474 eV   |
           -------------------------------------------------

------------------------------------------------------------------------
 * finished run on 2022/11/24 at 12:21:40.031     
------------------------------------------------------------------------
 total:
 * wall-time:     0 d,  0 h,  0 min, 23.345 sec
 *  cpu-time:     0 d,  0 h,  0 min, 37.763 sec
 * ratio c/w:     1.618 speedup
 SCF:
 * wall-time:     0 d,  0 h,  0 min, 22.305 sec
 *  cpu-time:     0 d,  0 h,  0 min, 36.013 sec
 * ratio c/w:     1.615 speedup

