756
 energy: -1283.288584102578 gnorm: 0.016466556953 xtb: 6.5.1 (579679a)
o            5.07888748539566       -6.66807116745604        0.15929215622156
h            4.21484695495903       -6.99734532250694       -0.17991914980764
h            4.98062639181191       -6.62455902369261        1.12841112350939
o            0.93656010350890        3.16166410527030        4.62945711089280
h           -0.00607355833656        3.16412417954161        4.36668823507132
h            1.29912938157062        4.00715804552787        4.33712277801430
o            0.10822042395962        0.39424143742345       -3.46492263943440
h           -0.01945869179450       -0.34789188362364       -4.08537485967108
h            0.96981263522358        0.20401688057175       -3.06162201975171
o           -5.93944756445560        1.66055462983837        0.46990855190318
h           -5.17158547839567        1.72258993098316       -0.13053680088936
h           -6.67478410553301        1.95529502279340       -0.09582356370999
o           -2.48371356026827        3.08636541995601        1.12403050311570
h           -1.92241647614396        3.59287363886378        0.51021720006366
h           -2.02164616483742        3.03181849701673        1.98011428699096
o           -3.44686948360958       -5.02110263895664        0.29239415347236
h           -3.47236878884392       -4.18218874698861       -0.19270202242145
h           -2.86644002186030       -4.90563337686988        1.07455382800609
o           -1.67093744657534       -1.97020651630977       -2.84085928963345
h           -1.89156392610647       -2.87951095684722       -2.59131828008493
h           -0.79881763448828       -1.80407958032265       -2.47450976112225
o           -0.49758726913555       -5.90024551139255       -0.06031184610463
h           -0.91920673451868       -5.80263731304844        0.80733505509770
h            0.38617240867196       -5.49834705707947        0.03235378089843
o           -1.61075467205883       -2.69806265728166        0.23874284125040
h           -0.91076776550183       -3.06924833234391        0.80767987676604
h           -1.68904743059532       -3.25389937381273       -0.54587253075532
o            0.64735079574068        4.89438743301319       -4.92775680211723
h            0.27734119966896        4.57752904091033       -5.76274977024901
h            1.55393692023007        5.19664295907082       -5.13847731566729
o           -3.31629794492349        1.11521083963386       -3.89867262539262
h           -3.87555582643755        1.88236014236003       -4.12397688458972
h           -2.62668182450406        1.47864629811541       -3.31998544678168
o           -1.87597358785260        2.80489083687067       -2.51500537166495
h           -2.34863324740057        3.48207287114351       -2.01496439255757
h           -0.90892271467274        2.93170888720489       -2.42245318915166
o           -4.28315659062115       -2.92295820781672       -1.17017980283421
h           -4.22905612544049       -2.19791118298438       -1.81911401932778
h           -4.60886216030343       -3.72332376726084       -1.63933743390684
o           -4.65338788567218        2.35754817967383       -1.69192533112817
h           -5.20113332405411        2.02933912862387       -2.41914240945905
h           -4.98128063005145        3.24620153172679       -1.48599700973337
o           -1.10118338413561        4.70768331183485       -0.59271614320936
h           -0.97222984099932        5.10025546771327       -1.47372116557227
h           -0.61030243877781        5.28777094491617        0.00376367315101
o            0.28888702899773        2.01599254196223       -5.51300568631950
h            0.30053900801687        1.51589332705996       -4.66099695326651
h           -0.07583748046389        1.37773985537716       -6.15584462787882
o           -1.36439327731571        0.11201001680787        2.68822709599432
h           -1.09898655093903       -0.63800828870753        3.25231693425969
h           -2.25578747911484        0.39840463473733        2.96009317947146
o           -2.13802545664045       -0.41782059923609        7.94909295430636
h           -3.01641446714608        0.00596495824667        8.12002432374799
h           -2.30706777305715       -1.36840546584357        7.96784150586703
o           -1.79849827624076       -5.31655938624543        2.28017576215202
h           -1.75316791334640       -4.69997533985033        3.04391977369385
h           -2.34772030768538       -6.05411853771662        2.60651891167474
o           -1.40328599450708        0.62311685698927        5.58273096345058
h           -0.44364675793980        0.53079921565379        5.55857605859146
h           -1.67918231501051        0.35938224455748        6.48369902076151
o           -3.47239683044123       -2.73059156636384        2.21461764193453
h           -3.19976765923501       -2.12662319179833        2.91740946693126
h           -2.85097737239470       -2.60844136399663        1.47932904605237
o            3.74774500939521        0.21791844618210        3.69454503893113
h            4.42739579423947       -0.12997729294097        4.30060076730290
h            3.41430106663098       -0.51124212896832        3.16122415991094
o            0.71837830995096       -2.62696970397766       -1.33857062471159
h            1.03976715063335       -3.11204928347340       -0.56852999415341
h            0.74636940085394       -3.30047199309198       -2.06189167780363
o           -0.41862674256085        6.07953813895839       -2.80426685922828
h           -0.29724182432299        5.68507753885544       -3.68431829187969
h            0.49791083620542        6.09550339667692       -2.46387637760852
o            0.58743012750007       -0.15100676098994        7.81726566053698
h            0.79411536842431        0.77109090626065        7.60723907412266
h           -0.31989672342092       -0.14884303649054        8.15962355447410
o           -3.68014545026668        1.02334599095698        3.76240933023459
h           -4.29831408211519        1.66908749574678        3.36404844489349
h           -4.20871903252724        0.20883177762506        3.86753204968152
o           -7.09215135691099       -0.28836481314638       -1.01195664801379
h           -6.46547954315181       -0.59607869659750       -0.32883985249123
h           -7.76789683551757        0.23314897336909       -0.55597913751763
o            2.97679572962186        3.08855001165330        2.39044559482148
h            2.16799443046007        2.55348428339540        2.41018545008992
h            3.61378025072424        2.56743127380138        1.86788944350281
o           -2.47308019415495       -0.98925248332029       -5.20041845652045
h           -2.09497340383447       -1.41200594639815       -4.40429099908257
h           -2.81757819809336       -0.14305793842761       -4.84811609690592
o            2.26025065900060       -0.63363141271358       -2.18722910187538
h            3.19114771153478       -0.91682446133986       -2.29274626808593
h            1.75894587161016       -1.42655975464776       -1.90537114292538
o           -3.63728011904400       -4.20388673267595       -4.24739862213904
h           -3.73476739389924       -4.69970198537569       -5.07895272578970
h           -4.17995441069618       -3.38777330409234       -4.39308478952231
o           -4.72170595203375       -0.72915962865082       -2.57665398214569
h           -4.20014567822266       -0.00668340367975       -2.98312713963420
h           -5.48381479182780       -0.33733183050324       -2.13148338674739
o            1.42135745133041        0.50298303783460        4.95973393345055
h            2.33644728143123        0.37454039085117        4.64062432045670
h            1.20741701917958        1.39788054940849        4.65313146189591
o            3.60233615198567       -4.44080278789528        2.00440021043779
h            3.39056072983376       -4.74722691356604        2.89550231116375
h            4.21830982543785       -3.70043596428426        2.12055858216062
o            0.90563101227843        1.37864860009293        2.38260426644911
h            1.44621207362465        0.60061293047688        2.19127616129968
h            0.02183648187395        1.03792964060385        2.62083888684651
o            3.90290242580013        3.00569224874046        4.82651034731075
h            4.72699956474284        2.58287740086800        4.47456267306320
h            3.35648793849478        3.06215907110205        4.00895768976081
o           -3.47178546579799        5.04397910153435       -2.24602684182000
h           -3.36995724584540        5.36100362642170       -1.34089429569586
h           -3.24133289917886        5.79953671073594       -2.81629338291280
o           -5.87964164150436        4.56444334912419       -0.61856216081141
h           -5.94162758775333        5.49168423199760       -0.89752914562985
h           -5.32657845921549        4.58809417543003        0.18930073773725
o            0.90723222982978       -4.39426983481264        4.70997480592259
h            1.03454999721755       -5.01450429346914        3.96280639434252
h           -0.05100671996761       -4.18581426505270        4.73219456276086
o           -4.52887964032406       -4.59134578272854        3.83377141931408
h           -4.24826701945843       -3.96967527160515        3.13223785090015
h           -5.49450257003643       -4.72664598197585        3.75211057169046
o            0.38555889362875       -3.23033365059929        1.90322500722447
h            0.63321409735252       -4.15566814844946        2.05596375515386
h            0.13553945632489       -2.83377340489093        2.75960837177156
o            0.24528321544324        4.02041098169820        1.72213374622561
h            0.27878911133475        3.14232376216458        2.12060006345676
h            0.80742651058945        3.94896691112627        0.91463455564290
o            0.91594617422123       -1.81622143239638       -7.59302165464162
h            1.50415306494898       -1.13053519441242       -7.93625679579748
h            0.83193891401526       -1.63982502626163       -6.62282474655355
o            2.66720524284458       -2.44445025621097        4.30689872451847
h            2.27209259480201       -2.02787523535967        3.52315957093161
h            2.06106091198072       -3.17705531054236        4.54482425204448
o           -5.56562844483747        2.68500059269336        2.85236498256574
h           -5.78691761430693        2.23779425548418        2.00530580625387
h           -5.20403577188480        3.53757709359377        2.53462953464436
o           -7.80742604844995        3.66302493255542        0.99593207390040
h           -7.48708942637008        4.11874867607459        1.78579757081880
h           -7.19856919373768        3.94686645712117        0.27582311990987
o           -6.35142168433362       -3.03002677958325        2.32973473875389
h           -7.27553480249711       -2.82309159088200        2.14107564015747
h           -5.82448335602162       -2.37423318492576        1.82789320701369
o            1.57921211308512       -7.27231017819647        5.20029450403181
h            1.40297635653606       -6.87523920723569        6.06384472081455
h            0.71365477658932       -7.41724550254989        4.78701050357546
o            6.29434399852946       -4.55404511138911        4.68626357292209
h            6.35616182219397       -3.97761087706915        5.48309674999448
h            5.42073175098031       -4.96677541379716        4.75059563065369
o            0.69631524479786        3.21957927979697       -2.73283496595586
h            0.75958496242799        3.91429674184279       -3.40910181421340
h            1.06429038275849        3.54750313277300       -1.88144732274478
o            3.24722834683175       -4.18978650108373       -2.10139528053866
h            3.36006522886291       -4.89663053230508       -2.76225269022644
h            4.11555969457061       -4.08405382119334       -1.63972136317128
o           -8.48977796194323        4.98723606219867       -1.86158097218801
h           -7.84704295367426        5.10816024877989       -2.59216849530610
h           -9.36269328145670        4.94344175486187       -2.28962562727551
o            6.35636804547464       -0.25509350233321        2.69739669984338
h            5.97617901884767       -1.10409337726549        2.98831977845268
h            7.28904922684319       -0.25923692194889        2.95730648572976
o           -0.23281695620013        4.22181584351247       -7.55039876199617
h           -0.80923406152156        3.48031316870691       -7.75039189924134
h            0.68416670522491        3.87411736777066       -7.58587709320486
o           -7.19298970095530       -3.02704186096011       -1.06970813085574
h           -7.63800882886777       -2.65903446050272       -0.29317355360014
h           -6.24765415666112       -2.87533888233427       -0.95730868238346
o           -1.58620415743687        2.94644307763769        3.72091376678475
h           -2.27451509687697        3.56245306148591        4.01812945070975
h           -1.76143802177872        2.10792621143293        4.17312352502982
o            1.90362896648663       -4.78847235843951        0.00564562497602
h            2.38881774157231       -4.53550670400902       -0.81889126332569
h            2.51237745760889       -4.65184351861551        0.75878134250274
o           -3.49782209478245       -7.00738510477529        3.50240650875712
h           -3.93595949933323       -6.15013572590861        3.72368701732711
h           -4.13496309797033       -7.47516530457622        2.94008389952747
o            2.68126960353988        1.78317593376226       -3.58444439824554
h            1.84821950542781        2.20211687899422       -3.25857620747865
h            3.10804164414496        1.35632612506418       -2.83375205689268
o            2.43976537864556        0.62826642101139       -8.09768309092068
h            2.42330690277290        0.43163253515418       -7.11974384755112
h            3.37551949792947        0.68401142523953       -8.30571324982053
o           -1.70926451911955       -4.01856627836919        4.56866223783305
h           -2.28269427111848       -4.53222302031372        5.16839809289122
h           -2.03787394813230       -3.09389990035689        4.57449856939153
o           -1.62903711916261       -6.47506762586228       -5.79336949930823
h           -2.36298627096924       -6.22742346753802       -6.37520819902713
h           -2.03914977831350       -6.75037277142007       -4.95766718924243
o            2.09302871971484        0.86606784464851       -0.09097392155995
h            2.95991868358727        0.90269017915103        0.36414554701582
h            2.23698631425920        0.36745240340871       -0.92646154894570
o           -1.83180094905090       -4.50447687538781       -1.92671474374484
h           -2.32527916906720       -5.09254721962841       -2.51041273179141
h           -1.33708733284909       -5.07108422841949       -1.30090141940635
o            3.61982148086350       -5.41859461647845        4.63048954819659
h            3.56388002315346       -4.83843041600458        5.42766655243713
h            2.94474445519544       -6.09980609317778        4.78788648409371
o           -4.08253033903501       -1.40255920217452       -7.58050946330239
h           -4.24057162367248       -1.36084592124455       -8.52163947528718
h           -3.20824063764886       -1.81859221547634       -7.45439306070311
o           -5.18741962342661       -5.12431393658114       -2.28787870173747
h           -6.00774959401871       -4.77658643604242       -2.70144042476809
h           -4.53316865202602       -5.07612500425197       -3.01104338544448
o           -1.79024333630647        3.51042390071335       -5.00984144900179
h           -0.93659131970591        3.04357434262609       -5.19303568150547
h           -1.95228824817248        3.31260652776620       -4.05524468516633
o          -10.20040324463666        4.61926781473812        0.65156060795016
h           -9.26576541384954        4.27822481447879        0.67346153721806
h          -10.12370003785260        5.56961403856763        0.55491263331697
o            3.54779901204552       -4.06471667428729        6.92712542802162
h            3.27270514316787       -3.11885924224114        6.94317438143284
h            2.78856426828540       -4.56268685508743        7.27366449097103
o           -1.33481392295968        3.48331099632870        6.61422742745142
h           -0.63249437621924        3.00575363793516        7.07052807831700
h           -0.94680871305802        4.33418870738694        6.34484572764387
o            4.33465692694345       -1.76458726518678        0.51904444534470
h            4.46378867846274       -1.49013512734952       -0.41650997795730
h            5.15301731381836       -1.54965354212753        0.98477655863533
o            3.87747285995939        5.59575237784254        2.47689469700120
h            3.74202488002610        4.63546505583524        2.52035103346927
h            3.30265358908956        5.86418094133869        1.72742486993435
o           -4.93061492635207        0.75980433130774       -6.13395216741008
h           -4.70051941219955       -0.07924854444772       -6.56898800884881
h           -4.27035023740959        1.39572920480832       -6.46948484488013
o            5.17448537302622       -6.99615075731752        2.87369980988634
h            6.10467491312641       -6.99357330805673        3.15364594631404
h            4.72263017904805       -6.33462967009167        3.41760481512483
o           -4.38878957092092        4.58683243864715       -6.68458927632341
h           -3.67268664035906        5.23673674525120       -6.61250414791130
h           -4.01369801372114        3.82154116724851       -7.14073226550399
o            4.79962439080517        1.65825541765181       -1.75829169657078
h            5.07761254181383        1.59795541574656       -2.68417269737053
h            5.51789414086624        1.27692928363028       -1.23357439605235
o           -8.04138341524393       -7.39363542213998        2.78971787187832
h           -7.24419627590459       -7.74439895569759        2.36407258926809
h           -8.58672435064905       -6.98001621971455        2.10489859121355
o           -8.53591040506353       -1.89541455574914        1.01701660924438
h           -9.40060497423937       -1.80209439320685        1.45265152062729
h           -7.99582482517084       -1.14668576861382        1.36004877181884
o           -7.65528096486555       -5.56947250808047       -0.86158498566454
h           -6.92804221373645       -5.64859878053968       -0.20427285724831
h           -7.62255867290146       -4.60976254811987       -1.09395967180547
o           -8.02942228145396        6.66085774092539        0.26688599103920
h           -7.23236369750252        7.12345739630645       -0.03094547652917
h           -8.22799648703064        6.04690344298604       -0.46783736699548
o           -5.58675721067703        7.28141306135180       -0.81168397259422
h           -4.65526749179802        7.14727813399670       -0.59443125505058
h           -5.62845688420820        7.43127445604829       -1.78582829151596
o           -2.92007301718409        6.82164819590734       -0.07933779203910
h           -2.49836622900913        6.31546579916976        0.65298692581754
h           -2.20746324469789        7.19665600011513       -0.62040261724089
o            0.04225791927920        5.73803764564187        5.86540566682501
h            0.83836596581910        5.56403843898485        6.39178767988883
h            0.39737050423316        5.77982012566545        4.94851867979084
o            1.20825943750109        5.71898283460980        3.49511863533326
h            1.49500864999760        6.58738267034187        3.16857531702890
h            0.91219688366918        5.19463490265695        2.72177641148136
o            0.11862487619418        7.68733917069110       -5.39465766609942
h           -0.61413332012230        7.09505243174166       -5.62861291999358
h            0.89240854230489        7.36022178854020       -5.85692411261185
o            2.18290173477680        3.16003897092094       -7.05364353848380
h            1.70410821149801        2.77831721513589       -6.28985757344566
h            2.35375738162555        2.38402499581725       -7.61684054483188
o            4.36687790835378        1.18300515984401        1.21675299291310
h            4.38974391033260        0.78219089553037        2.09959572690562
h            5.22132126668133        0.97107573180668        0.78543647612964
o            5.85477136951167        3.98177905318228       -5.73864577468555
h            5.25309282913357        3.85167872935235       -4.98837006139362
h            6.45459101826192        4.67615074066031       -5.43800365367815
o           -2.75086234868300        7.12842788954546       -3.78284868233846
h           -2.58988158561813        6.89084939738741       -4.70408815876876
h           -1.87908303076417        7.12664996201023       -3.35428894389876
o           -5.91376793813793       -5.29184453693816        1.08976896989432
h           -5.00576608327992       -5.15318372250261        0.74186694037189
h           -6.12732445422465       -4.48615789088737        1.61802013048485
o            1.23793069534818       -9.00636613141571        0.60571962440320
h            1.68501965146858       -8.85295065454907        1.45067452261085
h            0.29478857055061       -8.82235883338736        0.74664191502850
o            8.18437156557830       -2.43148301561418       -1.51228964219405
h            7.64635295849405       -2.38008156428296       -0.68173787875042
h            8.06378119396623       -3.32490669492491       -1.88656625706969
o            0.98465202514662       -5.88161937842047        2.52359048886878
h            1.68420498484417       -6.55153821666761        2.43490114329725
h            0.18358179726794       -6.37462057138124        2.77458755668212
o            3.57842441110414        7.43661350665279       -3.72406596129188
h            3.55105710634330        6.99458128006346       -4.58237098556082
h            4.38359987510245        7.13084934552068       -3.27630871623345
o           -7.06264964564836       -2.60527230779056        6.64936579679123
h           -7.53077829261654       -2.48848533832569        5.79926703406091
h           -7.00044863521908       -1.70420255438912        6.99374946034021
o           -7.15668160572389       -1.86435977323044       -6.46167283720523
h           -6.38662942766752       -1.84391519812686       -5.85321781945553
h           -7.21567029405109       -0.99040776691274       -6.85592648422704
o           -5.58440109439542        7.37114971162649       -3.43882014555640
h           -6.00053735698794        6.52908732955056       -3.70559965300554
h           -4.65616188851508        7.34120752810433       -3.69841308307190
o           -6.78670995994880        4.94899991764650       -3.90854052807706
h           -6.05743344140895        4.30005901625302       -3.81971962441743
h           -7.15953761245930        4.74217357613497       -4.78582822588512
o            5.39721770376200       -0.50600526575408        5.69558057128083
h            6.18281842497613        0.04183904281838        5.79017559090459
h            4.71842578323826       -0.12188473519212        6.28730651858211
o           -4.95403692027878       -2.03472076522480       -4.85067652156850
h           -5.08139168096366       -1.53897282851881       -4.01161029051479
h           -4.16042961100733       -1.64214307074698       -5.26035567585944
o            1.15249019297515       -6.35236543364616       -5.78969555944914
h            1.47452438079813       -7.06180594812615       -5.22674125367815
h            0.20744731605366       -6.51234673600378       -5.91557800607023
o            0.78900159089851       -4.49355479460103       -3.20409399183342
h            0.57414548653230       -5.38517630267931       -2.89149771593516
h            0.11231531367945       -4.28754440931401       -3.86847941649392
o           -4.49190308935425        4.72338087687855        1.61821332466693
h           -4.26957310518134        5.56158496101225        2.04845384595057
h           -3.65713560530159        4.22582705914009        1.44583819685923
o           -7.33988026622743       -1.20607205080407       -3.47479439961856
h           -8.22573946484026       -1.27236012935416       -3.86742898419152
h           -7.44461761431047       -1.11218863791447       -2.50935588318940
o          -10.79417700684803        4.68340122158793       -3.27760995961309
h          -11.34250891807518        5.38681093162726       -3.62268965719730
h          -10.45445185556668        4.18833274001899       -4.07330212589089
o            4.39908557506592        8.09330193942728       -0.26257380053930
h            5.01637835959537        7.97669465724544        0.47386143923679
h            4.75240339798595        7.55468947669835       -0.99523753056478
o           -6.37205577321929        1.32085505475474       -3.71727669122208
h           -5.84813036562783        1.32292143986321       -4.52710500938823
h           -6.77646585979917        0.43028729047936       -3.66961868214360
o            2.60235227926150        4.91874911325309        6.48798277516409
h            2.98558780520601        5.70614563620050        6.06201836638359
h            2.97319249155615        4.18245280506427        5.98127314857503
o            2.51462664730025        0.00544508629475       -5.59442048446593
h            3.38000878271285       -0.42449605201660       -5.51457799107376
h            2.50660874224428        0.69676855855579       -4.90788292866080
o           -3.22968227585934       -5.61220057031659        6.22122893301289
h           -3.21363058354859       -6.46047374291612        5.77465484854469
h           -4.18394211042622       -5.43413105903723        6.37509766183697
o            5.35119911303131        6.21006078104894       -2.02442794997947
h            6.16591034804492        6.26267672636746       -1.45982567116179
h            4.88605233938624        5.41844713559253       -1.66474642214986
o           -5.22306657041928       -1.24052623660736        0.66802723362231
h           -4.75873495639863       -1.89349936472657        0.11687483965665
h           -4.55953616947938       -0.55433075027070        0.85475346429866
o            7.96778936717206        3.56452656799352        4.73855431947080
h            7.33057244299112        2.92970747199042        4.33315975108229
h            7.42022910017314        4.11662144867183        5.31331434584613
o           -9.25700632076227        0.84194494068688        3.64215940139126
h           -9.80080886560956        1.57943214036504        3.31191501973021
h           -8.59954741555898        1.27090863138879        4.23249490392132
o           -3.76563117223576        4.50103334170734        4.56793560490032
h           -3.89572445846599        3.78396480323478        5.24075002687872
h           -4.61382583604289        4.65083413340929        4.14932340063771
o           -7.66468184139339        2.43670464842987       -1.59423722589119
h           -7.21261214203493        2.18459865471944       -2.41465935947491
h           -7.93159725112945        3.37244843091432       -1.67158207301572
o           -4.48814538690283        0.74059976448921        8.08811021210913
h           -5.22294312313083        0.32601957855281        7.59849338313407
h           -4.26978842166170        1.51752274710865        7.54461245423309
o           -0.09539639844965       -2.55416388203209        6.54805363469078
h            0.17967503133037       -1.76332702520387        7.03025343545399
h           -0.98494356261961       -2.78638494078744        6.87357071989039
o            1.12718778982263       -5.30006175087604        7.18496643889978
h            0.50379961755898       -4.86128441168434        7.76387196089055
h            1.00856402532817       -4.87057476672217        6.30301633382476
o           -1.94481751616530        5.86357942979413       -6.12841562412336
h           -1.87026416818251        5.02145971942360       -5.60175505198575
h           -1.45890457014703        5.65859079321231       -6.93662403814037
o            4.33041948203613        4.08574180963698       -0.71961487993618
h            4.79227815368640        4.07613663232821        0.13636419034835
h            4.54490115573761        3.22448588134161       -1.14327213503065
o            7.38531670311176        2.63367129825579       -3.30736120145259
h            6.71914990581681        2.10072679670095       -3.78210700400701
h            7.27529879321926        3.56653525450716       -3.59289849306164
o            1.83555495680238        9.08735851010167       -0.17303230494666
h            2.80086264534396        9.06490323488472       -0.21807443176760
h            1.53935872678284        9.07314001592045       -1.08959971990998
o            5.71768244603022        4.85570793860144        5.72977038890849
h            5.37607400632382        5.75316273123846        5.67269736370403
h            5.04067253694142        4.30242860343322        5.29735189232707
o            6.03115039624759        2.16567638397495        3.63333196701033
h            6.12673466467976        1.23878201966922        3.32023846505812
h            5.95267259442867        2.71003951177032        2.81577795556049
o            5.37518468490623       -4.04257384594204       -0.62867497127322
h            5.03516266885242       -3.35116519528880       -0.03844266433348
h            5.35310311845470       -4.87407922019706       -0.13039914480173
o            6.65045635779007       -4.61759951409290        1.75678396621087
h            7.14937455150207       -5.37172384792738        1.41437922737817