      -----------------------------------------------------------      
     |                   =====================                   |     
     |                           x T B                           |     
     |                   =====================                   |     
     |                         S. Grimme                         |     
     |          Mulliken Center for Theoretical Chemistry        |     
     |                    University of Bonn                     |     
      -----------------------------------------------------------      

   * xtb version 6.5.1 (579679a) compiled by 'ehlert@majestix' on 2022-07-11

   xtb is free software: you can redistribute it and/or modify it under
   the terms of the GNU Lesser General Public License as published by
   the Free Software Foundation, either version 3 of the License, or
   (at your option) any later version.
   
   xtb is distributed in the hope that it will be useful,
   but WITHOUT ANY WARRANTY; without even the implied warranty of
   MERCHANTABILITY or FITNESS FOR A PARTICULAR PURPOSE.  See the
   GNU Lesser General Public License for more details.
   
   Cite this work as:
   * C. Bannwarth, E. Caldeweyher, S. Ehlert, A. Hansen, P. Pracht,
     J. Seibert, S. Spicher, S. Grimme, WIREs Comput. Mol. Sci., 2020, 11,
     e01493. DOI: 10.1002/wcms.1493
   
   for GFN2-xTB:
   * C. Bannwarth, S. Ehlert and S. Grimme., J. Chem. Theory Comput., 2019,
     15, 1652-1671. DOI: 10.1021/acs.jctc.8b01176
   for GFN1-xTB:
   * S. Grimme, C. Bannwarth, P. Shushkov, J. Chem. Theory Comput., 2017,
     13, 1989-2009. DOI: 10.1021/acs.jctc.7b00118
   for GFN0-xTB:
   * P. Pracht, E. Caldeweyher, S. Ehlert, S. Grimme, ChemRxiv, 2019, preprint.
     DOI: 10.26434/chemrxiv.8326202.v1
   for GFN-FF:
   * S. Spicher and S. Grimme, Angew. Chem. Int. Ed., 2020, 59, 15665-15673.
     DOI: 10.1002/anie.202004239
   
   for ALPB and GBSA implicit solvation:
   * S. Ehlert, M. Stahn, S. Spicher, S. Grimme, J. Chem. Theory Comput.,
     2021, 17, 4250-4261. DOI: 10.1021/acs.jctc.1c00471
   
   for DFT-D4:
   * E. Caldeweyher, C. Bannwarth and S. Grimme, J. Chem. Phys., 2017,
     147, 034112. DOI: 10.1063/1.4993215
   * E. Caldeweyher, S. Ehlert, A. Hansen, H. Neugebauer, S. Spicher,
     C. Bannwarth and S. Grimme, J. Chem. Phys., 2019, 150, 154122.
     DOI: 10.1063/1.5090222
   * E. Caldeweyher, J.-M. Mewes, S. Ehlert and S. Grimme, Phys. Chem. Chem. Phys.
     2020, 22, 8499-8512. DOI: 10.1039/D0CP00502A
   
   for sTDA-xTB:
   * S. Grimme and C. Bannwarth, J. Chem. Phys., 2016, 145, 054103.
     DOI: 10.1063/1.4959605
   
   in the mass-spec context:
   * V. Asgeirsson, C. Bauer and S. Grimme, Chem. Sci., 2017, 8, 4879.
     DOI: 10.1039/c7sc00601b
   * J. Koopman and S. Grimme, ACS Omega 2019, 4, 12, 15120-15133.
     DOI: 10.1021/acsomega.9b02011
   
   for metadynamics refer to:
   * S. Grimme, J. Chem. Theory Comput., 2019, 155, 2847-2862
     DOI: 10.1021/acs.jctc.9b00143
   
   for SPH calculations refer to:
   * S. Spicher and S. Grimme, J. Chem. Theory Comput., 2021, 17, 1701-1714
     DOI: 10.1021/acs.jctc.0c01306
   
   with help from (in alphabetical order)
   P. Atkinson, C. Bannwarth, F. Bohle, G. Brandenburg, E. Caldeweyher
   M. Checinski, S. Dohm, S. Ehlert, S. Ehrlich, I. Gerasimov, C. Hölzer
   A. Katbashev, J. Koopman, C. Lavigne, S. Lehtola, F. März, M. Müller,
   F. Musil, H. Neugebauer, J. Pisarek, C. Plett, P. Pracht, F. Pultar,
   J. Seibert, P. Shushkov, S. Spicher, M. Stahn, M. Steiner, T. Strunk,
   J. Stückrath, T. Rose, and J. Unsleber
   
 * started run on 2022/11/24 at 09:07:52.369     

           -------------------------------------------------
          |                Calculation Setup                |
           -------------------------------------------------

          program call               : xtb solvent_cluster.coord --gfn2 --input xcontrol --opt 1
          hostname                   : cn0341
          coordinate file            : solvent_cluster.coord
          omp threads                :                     2

   ID    Z sym.   atoms
    1    8 o      1, 4, 7, 10, 13, 16, 19, 22, 25, 28, 31, 34, 37, 40, 43,
                  46, 49, 52, 55, 58, 61, 64, 67, 70, 73, 76, 79, 82, 85, 88,
                  91, 94, 97, 100, 103, 106, 109, 112, 115, 118, 121, 124,
                  127, 130, 133, 136, 139, 142, 145, 148, 151, 154, 157, 160,
                  163, 166, 169, 172, 175, 178, 181, 184, 187, 190, 193, 196,
                  199, 202, 205, 208, 211, 214, 217, 220, 223, 226, 229, 232,
                  235, 238, 241, 244, 247, 250, 253, 256, 259, 262, 265, 268,
                  271, 274, 277, 280, 283, 286, 289, 292, 295, 298, 301, 304,
                  307, 310, 313, 316, 319, 322, 325, 328, 331, 334, 337, 340,
                  343, 346, 349, 352, 355, 358, 361, 364, 367, 370, 373, 376,
                  379, 382, 385, 388, 391, 394, 397, 400, 403, 406, 409, 412,
                  415, 418, 421, 424, 427, 430, 433, 436, 439, 442, 445, 448,
                  451, 454, 457, 460, 463, 466, 469, 472, 475, 478, 481, 484,
                  487, 490, 493, 496, 499, 502, 505, 508, 511, 514, 517, 520,
                  523, 526, 529, 532, 535, 538, 541, 544, 547, 550, 553, 556,
                  559, 562, 565, 568, 571, 574, 577, 580, 583, 586, 589, 592,
                  595, 598, 601, 604, 607, 610, 613, 616, 619, 622, 625, 628,
                  631, 634, 637, 640, 643, 646, 649, 652, 655, 658, 661, 664,
                  667, 670, 673, 676, 679, 682, 685, 688, 691, 694, 697, 700,
                  703, 706, 709, 712, 715, 718, 721, 724, 727, 730, 733, 736,
                  739, 742, 745, 748, 751, 754
    2    1 h      2, 3, 5, 6, 8, 9, 11, 12, 14, 15, 17, 18, 20, 21, 23, 24,
                  26, 27, 29, 30, 32, 33, 35, 36, 38, 39, 41, 42, 44, 45, 47,
                  48, 50, 51, 53, 54, 56, 57, 59, 60, 62, 63, 65, 66, 68, 69,
                  71, 72, 74, 75, 77, 78, 80, 81, 83, 84, 86, 87, 89, 90, 92,
                  93, 95, 96, 98, 99, 101, 102, 104, 105, 107, 108, 110, 111,
                  113, 114, 116, 117, 119, 120, 122, 123, 125, 126, 128, 129,
                  131, 132, 134, 135, 137, 138, 140, 141, 143, 144, 146, 147,
                  149, 150, 152, 153, 155, 156, 158, 159, 161, 162, 164, 165,
                  167, 168, 170, 171, 173, 174, 176, 177, 179, 180, 182, 183,
                  185, 186, 188, 189, 191, 192, 194, 195, 197, 198, 200, 201,
                  203, 204, 206, 207, 209, 210, 212, 213, 215, 216, 218, 219,
                  221, 222, 224, 225, 227, 228, 230, 231, 233, 234, 236, 237,
                  239, 240, 242, 243, 245, 246, 248, 249, 251, 252, 254, 255,
                  257, 258, 260, 261, 263, 264, 266, 267, 269, 270, 272, 273,
                  275, 276, 278, 279, 281, 282, 284, 285, 287, 288, 290, 291,
                  293, 294, 296, 297, 299, 300, 302, 303, 305, 306, 308, 309,
                  311, 312, 314, 315, 317, 318, 320, 321, 323, 324, 326, 327,
                  329, 330, 332, 333, 335, 336, 338, 339, 341, 342, 344, 345,
                  347, 348, 350, 351, 353, 354, 356, 357, 359, 360, 362, 363,
                  365, 366, 368, 369, 371, 372, 374, 375, 377, 378, 380, 381,
                  383, 384, 386, 387, 389, 390, 392, 393, 395, 396, 398, 399,
                  401, 402, 404, 405, 407, 408, 410, 411, 413, 414, 416, 417,
                  419, 420, 422, 423, 425, 426, 428, 429, 431, 432, 434, 435,
                  437, 438, 440, 441, 443, 444, 446, 447, 449, 450, 452, 453,
                  455, 456, 458, 459, 461, 462, 464, 465, 467, 468, 470, 471,
                  473, 474, 476, 477, 479, 480, 482, 483, 485, 486, 488, 489,
                  491, 492, 494, 495, 497, 498, 500, 501, 503, 504, 506, 507,
                  509, 510, 512, 513, 515, 516, 518, 519, 521, 522, 524, 525,
                  527, 528, 530, 531, 533, 534, 536, 537, 539, 540, 542, 543,
                  545, 546, 548, 549, 551, 552, 554, 555, 557, 558, 560, 561,
                  563, 564, 566, 567, 569, 570, 572, 573, 575, 576, 578, 579,
                  581, 582, 584, 585, 587, 588, 590, 591, 593, 594, 596, 597,
                  599, 600, 602, 603, 605, 606, 608, 609, 611, 612, 614, 615,
                  617, 618, 620, 621, 623, 624, 626, 627, 629, 630, 632, 633,
                  635, 636, 638, 639, 641, 642, 644, 645, 647, 648, 650, 651,
                  653, 654, 656, 657, 659, 660, 662, 663, 665, 666, 668, 669,
                  671, 672, 674, 675, 677, 678, 680, 681, 683, 684, 686, 687,
                  689, 690, 692, 693, 695, 696, 698, 699, 701, 702, 704, 705,
                  707, 708, 710, 711, 713, 714, 716, 717, 719, 720, 722, 723,
                  725, 726, 728, 729, 731, 732, 734, 735, 737, 738, 740, 741,
                  743, 744, 746, 747, 749, 750, 752, 753, 755, 756

molecular fragmentation (1/2 indicates fragments):
111222222222222222222222222222222222222222222222222222222222222222222222
222222222222222222222222222222222222222222222222222222222222222222222222
222222222222222222222222222222222222222222222222222222222222222222222222
222222222222222222222222222222222222222222222222222222222222222222222222
222222222222222222222222222222222222222222222222222222222222222222222222
222222222222222222222222222222222222222222222222222222222222222222222222
222222222222222222222222222222222222222222222222222222222222222222222222
222222222222222222222222222222222222222222222222222222222222222222222222
222222222222222222222222222222222222222222222222222222222222222222222222
222222222222222222222222222222222222222222222222222222222222222222222222
222222222222222222222222222222222222
# atoms in fragment 1/2:     3   753
 fragment masses (1/2) :       18.02     4521.84
CMA distance (Bohr)    :  16.550
constraining FC (au)   :  0.0500

           -------------------------------------------------
          |                 G F N 2 - x T B                 |
           -------------------------------------------------

        Reference                      10.1021/acs.jctc.8b01176
      * Hamiltonian:
        H0-scaling (s, p, d)           1.850000    2.230000    2.230000
        zeta-weighting                 0.500000
      * Dispersion:
        s8                             2.700000
        a1                             0.520000
        a2                             5.000000
        s9                             5.000000
      * Repulsion:
        kExp                           1.500000    1.000000
        rExp                           1.000000
      * Coulomb:
        alpha                          2.000000
        third order                    shell-resolved
        anisotropic                    true
        a3                             3.000000
        a5                             4.000000
        cn-shift                       1.200000
        cn-exp                         4.000000
        max-rad                        5.000000


          ...................................................
          :                      SETUP                      :
          :.................................................:
          :  # basis functions                1512          :
          :  # atomic orbitals                1512          :
          :  # shells                         1008          :
          :  # electrons                      2016          :
          :  max. iterations                   250          :
          :  Hamiltonian                  GFN2-xTB          :
          :  restarted?                      false          :
          :  GBSA solvation                  false          :
          :  PC potential                    false          :
          :  electronic temp.          300.0000000     K    :
          :  accuracy                    1.0000000          :
          :  -> integral cutoff          0.2500000E+02      :
          :  -> integral neglect         0.1000000E-07      :
          :  -> SCF convergence          0.1000000E-05 Eh   :
          :  -> wf. convergence          0.1000000E-03 e    :
          :  Broyden damping             0.4000000          :
          ...................................................

 iter      E             dE          RMSdq      gap      omega  full diag
   1  -1291.0243634 -0.129102E+04  0.407E+00    8.49       0.0  T
   2  -1291.0968795 -0.725161E-01  0.242E+00    8.17       1.0  T
   3  -1291.1279894 -0.311100E-01  0.210E-01    7.40       1.0  T
   4  -1291.1330841 -0.509471E-02  0.452E-02    7.61       1.0  T
   5  -1291.1331612 -0.770355E-04  0.307E-02    7.58       1.0  T
   6  -1291.1332010 -0.398801E-04  0.408E-03    7.60       1.0  T
   7  -1291.1332032 -0.212416E-05  0.776E-04    7.60       4.7  T
   8  -1291.1332032 -0.341759E-07  0.402E-04    7.60       9.1  T
   9  -1291.1332032 -0.157900E-07  0.706E-05    7.60      51.5  T

   *** convergence criteria satisfied after 9 iterations ***

         #    Occupation            Energy/Eh            Energy/eV
      -------------------------------------------------------------
         1        2.0000           -0.6990425             -19.0219
       ...           ...                  ...                  ...
      1002        2.0000           -0.4080565             -11.1038
      1003        2.0000           -0.4070313             -11.0759
      1004        2.0000           -0.4041485             -10.9974
      1005        2.0000           -0.4019998             -10.9390
      1006        2.0000           -0.4014405             -10.9238
      1007        2.0000           -0.3996512             -10.8751
      1008        2.0000           -0.3913953             -10.6504 (HOMO)
      1009                         -0.1120711              -3.0496 (LUMO)
      1010                         -0.0937395              -2.5508
      1011                         -0.0865912              -2.3563
      1012                         -0.0849739              -2.3123
      1013                         -0.0773216              -2.1040
       ...                                ...                  ...
      1512                          0.4317414              11.7483
      -------------------------------------------------------------
                  HL-Gap            0.2793242 Eh            7.6008 eV
             Fermi-level           -0.2517332 Eh           -6.8500 eV

 SCC (total)                   0 d,  0 h,  0 min, 22.576 sec
 SCC setup                      ...        0 min,  0.042 sec (  0.188%)
 Dispersion                     ...        0 min,  0.118 sec (  0.521%)
 classical contributions        ...        0 min,  0.023 sec (  0.103%)
 integral evaluation            ...        0 min,  0.619 sec (  2.743%)
 iterations                     ...        0 min,  9.030 sec ( 39.997%)
 molecular gradient             ...        0 min, 12.675 sec ( 56.145%)
 printout                       ...        0 min,  0.069 sec (  0.304%)

         :::::::::::::::::::::::::::::::::::::::::::::::::::::
         ::                     SUMMARY                     ::
         :::::::::::::::::::::::::::::::::::::::::::::::::::::
         :: total energy           -1283.331052709279 Eh    ::
         :: gradient norm              0.038706758970 Eh/a0 ::
         :: HOMO-LUMO gap              7.600798960089 eV    ::
         ::.................................................::
         :: SCC energy             -1291.133203217044 Eh    ::
         :: -> isotropic ES            7.162457619972 Eh    ::
         :: -> anisotropic ES         -1.615260421979 Eh    ::
         :: -> anisotropic XC         -0.126068181099 Eh    ::
         :: -> dispersion             -0.796105378763 Eh    ::
         :: repulsion energy           7.643601216836 Eh    ::
         :: add. restraining           0.000000000000 Eh    ::
         :: total charge               0.000000000000 e     ::
         :::::::::::::::::::::::::::::::::::::::::::::::::::::

      ----------------------------------------------------------- 
     |                       L-ANC optimizer                     |
      ----------------------------------------------------------- 
          low memory version by Sebastian Ehlert

          ...................................................
          :                      SETUP                      :
          :.................................................:
          :   energy convergence        0.1000000E-05 Eh    :
          :   grad. convergence         0.8000000E-03 Eh/a0 :
          :   optimization log               true           :
          :   writing optlog all                1     steps :
          :   Hessian reset                    20     steps :
          :   maximium step len.        1.0000000     a0    :
          :   LBFGS images                     20           :
          ...................................................
 * calculating model hessian...
Using Lindh-Hessian (1995)
 Shifting diagonal of input Hessian by   1.563716562464833E-002
 Lowest  eigenvalues of input Hessian
    0.010000    0.015637   -0.000000   -0.000000   -0.000000   -0.000000
   -0.000000   -0.000000   -0.000000   -0.000000   -0.000000   -0.000000
   -0.000000   -0.000000   -0.000000   -0.000000   -0.000000   -0.000000
 Highest eigenvalues
    0.314497    0.326254    1.218683    1.239996    1.431728    1.457677
 

........................................................................
.............................. CYCLE    1 ..............................
........................................................................
   1  -1291.1340917 -0.129113E+04  0.144E-02    7.61       0.0  T
   2  -1291.1340943 -0.254708E-05  0.880E-03    7.61       1.0  T
   3  -1291.1340953 -0.104811E-05  0.811E-04    7.62       4.5  T
   4  -1291.1340954 -0.573925E-07  0.223E-04    7.62      16.3  T
   5  -1291.1340954 -0.120599E-08  0.295E-05    7.62     123.4  T
     SCC iter.                  ...        0 min,  3.800 sec
     gradient                   ...        0 min, 12.444 sec
 * total energy  : -1283.3326836 Eh     change       -0.1630885E-02 Eh
   gradient norm :     0.0094938 Eh/a0  converged?    E=F G=F D=F
   step length   :     0.2617468 a0

........................................................................
.............................. CYCLE    2 ..............................
........................................................................
   1  -1291.1329257 -0.129113E+04  0.242E-02    7.65       0.0  T
   2  -1291.1329362 -0.104840E-04  0.146E-02    7.65       1.0  T
   3  -1291.1329384 -0.222719E-05  0.168E-03    7.66       2.2  T
   4  -1291.1329388 -0.363955E-06  0.344E-04    7.66      10.6  T
   5  -1291.1329388 -0.311547E-08  0.603E-05    7.66      60.4  T
     SCC iter.                  ...        0 min,  3.611 sec
     gradient                   ...        0 min, 12.732 sec
 * total energy  : -1283.3346832 Eh     change       -0.1999559E-02 Eh
   gradient norm :     0.0217995 Eh/a0  converged?    E=F G=F D=F
   step length   :     0.6336272 a0

........................................................................
.............................. CYCLE    3 ..............................
........................................................................
   1  -1291.1351266 -0.129114E+04  0.186E-02    7.68       0.0  T
   2  -1291.1351464 -0.198527E-04  0.110E-02    7.69       1.0  T
   3  -1291.1351494 -0.300137E-05  0.251E-03    7.69       1.4  T
   4  -1291.1351499 -0.457782E-06  0.350E-04    7.69      10.4  T
   5  -1291.1351499 -0.491536E-08  0.730E-05    7.69      49.8  T
     SCC iter.                  ...        0 min,  3.528 sec
     gradient                   ...        0 min, 12.722 sec
 * total energy  : -1283.3358799 Eh     change       -0.1196745E-02 Eh
   gradient norm :     0.0242895 Eh/a0  converged?    E=F G=F D=F
   step length   :     0.5465206 a0

........................................................................
.............................. CYCLE    4 ..............................
........................................................................
   1  -1291.1409963 -0.129114E+04  0.128E-02    7.69       0.0  T
   2  -1291.1410064 -0.100769E-04  0.747E-03    7.69       1.0  T
   3  -1291.1410082 -0.183553E-05  0.182E-03    7.69       2.0  T
   4  -1291.1410085 -0.242066E-06  0.355E-04    7.69      10.2  T
   5  -1291.1410085 -0.478121E-08  0.616E-05    7.69      59.1  T
     SCC iter.                  ...        0 min,  3.433 sec
     gradient                   ...        0 min, 12.832 sec
 * total energy  : -1283.3369799 Eh     change       -0.1099956E-02 Eh
   gradient norm :     0.0109502 Eh/a0  converged?    E=F G=F D=F
   step length   :     0.4589881 a0

........................................................................
.............................. CYCLE    5 ..............................
........................................................................
   1  -1291.1340256 -0.129113E+04  0.292E-02    7.71       0.0  T
   2  -1291.1340378 -0.121548E-04  0.175E-02    7.71       1.0  T
   3  -1291.1340405 -0.275065E-05  0.179E-03    7.72       2.0  T
   4  -1291.1340410 -0.439316E-06  0.490E-04    7.72       7.4  T
   5  -1291.1340410 -0.808018E-08  0.728E-05    7.72      49.9  T
     SCC iter.                  ...        0 min,  3.316 sec
     gradient                   ...        0 min, 12.995 sec
 * total energy  : -1283.3376141 Eh     change       -0.6342820E-03 Eh
   gradient norm :     0.0368367 Eh/a0  converged?    E=F G=F D=F
   step length   :     0.7884966 a0

........................................................................
.............................. CYCLE    6 ..............................
........................................................................
   1  -1291.1372243 -0.129114E+04  0.146E-02    7.70       0.0  T
   2  -1291.1372324 -0.809548E-05  0.892E-03    7.70       1.0  T
   3  -1291.1372347 -0.228957E-05  0.159E-03    7.70       2.3  T
   4  -1291.1372349 -0.255615E-06  0.423E-04    7.70       8.6  T
   5  -1291.1372349 -0.573868E-08  0.640E-05    7.70      56.9  T
     SCC iter.                  ...        0 min,  3.286 sec
     gradient                   ...        0 min, 13.127 sec
 * total energy  : -1283.3387606 Eh     change       -0.1146496E-02 Eh
   gradient norm :     0.0183709 Eh/a0  converged?    E=F G=F D=F
   step length   :     0.3031293 a0

........................................................................
.............................. CYCLE    7 ..............................
........................................................................
   1  -1291.1404919 -0.129114E+04  0.107E-02    7.73       0.0  T
   2  -1291.1404955 -0.357776E-05  0.641E-03    7.73       1.0  T
   3  -1291.1404962 -0.682724E-06  0.105E-03    7.73       3.5  T
   4  -1291.1404963 -0.110794E-06  0.199E-04    7.73      18.2  T
   5  -1291.1404963 -0.997034E-09  0.312E-05    7.73     116.4  T
     SCC iter.                  ...        0 min,  3.227 sec
     gradient                   ...        0 min, 13.230 sec
 * total energy  : -1283.3393878 Eh     change       -0.6271653E-03 Eh
   gradient norm :     0.0141812 Eh/a0  converged?    E=F G=F D=F
   step length   :     0.2224734 a0

........................................................................
.............................. CYCLE    8 ..............................
........................................................................
   1  -1291.1328745 -0.129113E+04  0.280E-02    7.77       0.0  T
   2  -1291.1328787 -0.423456E-05  0.170E-02    7.77       1.0  T
   3  -1291.1328806 -0.184244E-05  0.112E-03    7.78       3.2  T
   4  -1291.1328807 -0.861762E-07  0.358E-04    7.78      10.2  T
   5  -1291.1328807 -0.303817E-08  0.522E-05    7.77      69.6  T
     SCC iter.                  ...        0 min,  3.177 sec
     gradient                   ...        0 min, 13.297 sec
 * total energy  : -1283.3399371 Eh     change       -0.5492572E-03 Eh
   gradient norm :     0.0412788 Eh/a0  converged?    E=F G=F D=F
   step length   :     0.5235607 a0

........................................................................
.............................. CYCLE    9 ..............................
........................................................................
   1  -1291.1404278 -0.129114E+04  0.110E-02    7.78       0.0  T
   2  -1291.1404294 -0.160283E-05  0.652E-03    7.78       1.0  T
   3  -1291.1404299 -0.478285E-06  0.689E-04    7.78       5.3  T
   4  -1291.1404300 -0.455250E-07  0.202E-04    7.78      18.0  T
     SCC iter.                  ...        0 min,  2.510 sec
     gradient                   ...        0 min, 12.715 sec
 * total energy  : -1283.3412230 Eh     change       -0.1285914E-02 Eh
   gradient norm :     0.0180115 Eh/a0  converged?    E=F G=F D=F
   step length   :     0.1743816 a0

........................................................................
.............................. CYCLE   10 ..............................
........................................................................
   1  -1291.1405460 -0.129114E+04  0.178E-02    7.80       0.0  T
   2  -1291.1405477 -0.164159E-05  0.108E-02    7.81       1.0  T
   3  -1291.1405483 -0.640452E-06  0.676E-04    7.81       5.4  T
   4  -1291.1405483 -0.436203E-07  0.205E-04    7.81      17.7  T
     SCC iter.                  ...        0 min,  2.513 sec
     gradient                   ...        0 min, 13.380 sec
 * total energy  : -1283.3421365 Eh     change       -0.9135284E-03 Eh
   gradient norm :     0.0181384 Eh/a0  converged?    E=F G=F D=F
   step length   :     0.2963722 a0

........................................................................
.............................. CYCLE   11 ..............................
........................................................................
   1  -1291.1402576 -0.129114E+04  0.183E-02    7.84       0.0  T
   2  -1291.1402595 -0.195036E-05  0.112E-02    7.84       1.0  T
   3  -1291.1402606 -0.107803E-05  0.714E-04    7.85       5.1  T
   4  -1291.1402606 -0.227740E-07  0.215E-04    7.85      16.9  T
   5  -1291.1402606 -0.178420E-08  0.302E-05    7.85     120.2  T
     SCC iter.                  ...        0 min,  3.120 sec
     gradient                   ...        0 min, 13.427 sec
 * total energy  : -1283.3426008 Eh     change       -0.4642578E-03 Eh
   gradient norm :     0.0299171 Eh/a0  converged?    E=F G=F D=F
   step length   :     0.2722181 a0

........................................................................
.............................. CYCLE   12 ..............................
........................................................................
   1  -1291.1415541 -0.129114E+04  0.202E-02    7.87       0.0  T
   2  -1291.1415658 -0.117641E-04  0.120E-02    7.87       1.0  T
   3  -1291.1415677 -0.185948E-05  0.188E-03    7.87       1.9  T
   4  -1291.1415681 -0.369332E-06  0.340E-04    7.87      10.7  T
   5  -1291.1415681 -0.453792E-08  0.669E-05    7.87      54.3  T
     SCC iter.                  ...        0 min,  3.125 sec
     gradient                   ...        0 min, 13.372 sec
 * total energy  : -1283.3430428 Eh     change       -0.4420623E-03 Eh
   gradient norm :     0.0234281 Eh/a0  converged?    E=F G=F D=F
   step length   :     0.3536063 a0

........................................................................
.............................. CYCLE   13 ..............................
........................................................................
   1  -1291.1544103 -0.129115E+04  0.198E-02    7.86       0.0  T
   2  -1291.1544153 -0.497904E-05  0.118E-02    7.86       1.0  T
   3  -1291.1544171 -0.185316E-05  0.129E-03    7.85       2.8  T
   4  -1291.1544173 -0.135589E-06  0.391E-04    7.85       9.3  T
   5  -1291.1544173 -0.471141E-08  0.425E-05    7.85      85.5  T
     SCC iter.                  ...        0 min,  3.160 sec
     gradient                   ...        0 min, 13.111 sec
 * total energy  : -1283.3420342 Eh     change        0.1008599E-02 Eh
   gradient norm :     0.0543103 Eh/a0  converged?    E=F G=F D=F
   step length   :     0.2393188 a0

........................................................................
.............................. CYCLE   14 ..............................
........................................................................
   1  -1291.1485992 -0.129115E+04  0.155E-02    7.88       0.0  T
   2  -1291.1486067 -0.749860E-05  0.925E-03    7.88       1.0  T
   3  -1291.1486097 -0.300302E-05  0.166E-03    7.88       2.2  T
   4  -1291.1486099 -0.227624E-06  0.515E-04    7.88       7.1  T
   5  -1291.1486099 -0.812747E-08  0.529E-05    7.88      68.7  T
     SCC iter.                  ...        0 min,  3.208 sec
     gradient                   ...        0 min, 12.769 sec
 * total energy  : -1283.3435835 Eh     change       -0.1549319E-02 Eh
   gradient norm :     0.0315896 Eh/a0  converged?    E=F G=F D=F
   step length   :     0.1893738 a0

........................................................................
.............................. CYCLE   15 ..............................
........................................................................
   1  -1291.1413823 -0.129114E+04  0.134E-02    7.87       0.0  T
   2  -1291.1413855 -0.321499E-05  0.798E-03    7.88       1.0  T
   3  -1291.1413868 -0.127380E-05  0.102E-03    7.88       3.6  T
   4  -1291.1413869 -0.938371E-07  0.355E-04    7.88      10.2  T
   5  -1291.1413869 -0.481919E-08  0.370E-05    7.88      98.3  T
     SCC iter.                  ...        0 min,  3.198 sec
     gradient                   ...        0 min, 12.507 sec
 * total energy  : -1283.3435887 Eh     change       -0.5185840E-05 Eh
   gradient norm :     0.0191533 Eh/a0  converged?    E=F G=F D=F
   step length   :     0.1455701 a0

........................................................................
.............................. CYCLE   16 ..............................
........................................................................
   1  -1291.1461298 -0.129115E+04  0.857E-03    7.88       0.0  T
   2  -1291.1461317 -0.190395E-05  0.512E-03    7.88       1.0  T
   3  -1291.1461323 -0.610162E-06  0.781E-04    7.88       4.7  T
   4  -1291.1461323 -0.573825E-07  0.234E-04    7.88      15.6  T
     SCC iter.                  ...        0 min,  2.553 sec
     gradient                   ...        0 min, 12.609 sec
 * total energy  : -1283.3440637 Eh     change       -0.4749885E-03 Eh
   gradient norm :     0.0111791 Eh/a0  converged?    E=F G=F D=F
   step length   :     0.0870712 a0

........................................................................
.............................. CYCLE   17 ..............................
........................................................................
   1  -1291.1473829 -0.129115E+04  0.664E-03    7.89       0.0  T
   2  -1291.1473835 -0.603910E-06  0.409E-03    7.89       1.0  T
   3  -1291.1473838 -0.259746E-06  0.398E-04    7.89       9.1  T
   4  -1291.1473838 -0.143339E-07  0.119E-04    7.89      30.5  T
     SCC iter.                  ...        0 min,  2.512 sec
     gradient                   ...        0 min, 12.554 sec
 * total energy  : -1283.3442915 Eh     change       -0.2278141E-03 Eh
   gradient norm :     0.0160445 Eh/a0  converged?    E=F G=F D=F
   step length   :     0.0851604 a0

........................................................................
.............................. CYCLE   18 ..............................
........................................................................
   1  -1291.1471319 -0.129115E+04  0.162E-02    7.90       0.0  T
   2  -1291.1471360 -0.403498E-05  0.993E-03    7.90       1.0  T
   3  -1291.1471374 -0.147623E-05  0.103E-03    7.90       3.5  T
   4  -1291.1471375 -0.110297E-06  0.266E-04    7.90      13.7  T
   5  -1291.1471375 -0.165983E-08  0.367E-05    7.90      99.2  T
     SCC iter.                  ...        0 min,  3.127 sec
     gradient                   ...        0 min, 12.409 sec
 * total energy  : -1283.3447545 Eh     change       -0.4629909E-03 Eh
   gradient norm :     0.0221412 Eh/a0  converged?    E=F G=F D=F
   step length   :     0.2326131 a0

........................................................................
.............................. CYCLE   19 ..............................
........................................................................
   1  -1291.1472483 -0.129115E+04  0.108E-02    7.91       0.0  T
   2  -1291.1472502 -0.188654E-05  0.659E-03    7.91       1.0  T
   3  -1291.1472510 -0.757774E-06  0.747E-04    7.91       4.9  T
   4  -1291.1472510 -0.491079E-07  0.221E-04    7.91      16.5  T
     SCC iter.                  ...        0 min,  2.512 sec
     gradient                   ...        0 min, 12.215 sec
 * total energy  : -1283.3451184 Eh     change       -0.3639105E-03 Eh
   gradient norm :     0.0105096 Eh/a0  converged?    E=F G=F D=F
   step length   :     0.1724871 a0

........................................................................
.............................. CYCLE   20 ..............................
........................................................................
   1  -1291.1447573 -0.129114E+04  0.841E-03    7.91       0.0  T
   2  -1291.1447583 -0.972273E-06  0.514E-03    7.91       1.0  T
   3  -1291.1447587 -0.362348E-06  0.475E-04    7.91       7.7  T
   4  -1291.1447587 -0.247587E-07  0.143E-04    7.91      25.5  T
     SCC iter.                  ...        0 min,  2.466 sec
     gradient                   ...        0 min, 12.467 sec
 * total energy  : -1283.3453838 Eh     change       -0.2653854E-03 Eh
   gradient norm :     0.0098145 Eh/a0  converged?    E=F G=F D=F
   step length   :     0.1171706 a0
 * RMSD in coord.:     0.1053890 a0     energy gain  -0.1433110E-01 Eh
 * calculating model hessian...
Using Lindh-Hessian (1995)
 Shifting diagonal of input Hessian by   1.000002573928093E-002
 Lowest  eigenvalues of input Hessian
    0.010000   -0.000000   -0.000000   -0.000000   -0.000000   -0.000000
   -0.000000   -0.000000   -0.000000   -0.000000   -0.000000   -0.000000
   -0.000000   -0.000000   -0.000000   -0.000000   -0.000000   -0.000000
 Highest eigenvalues
    0.305409    0.307025    1.211312    1.222647    1.409428    1.419658
 

........................................................................
.............................. CYCLE   21 ..............................
........................................................................
   1  -1291.1447209 -0.129114E+04  0.134E-02    7.93       0.0  T
   2  -1291.1447240 -0.308942E-05  0.833E-03    7.93       1.0  T
   3  -1291.1447254 -0.134956E-05  0.863E-04    7.94       4.2  T
   4  -1291.1447254 -0.728135E-07  0.260E-04    7.93      14.0  T
   5  -1291.1447254 -0.171758E-08  0.301E-05    7.93     120.7  T
     SCC iter.                  ...        0 min,  3.100 sec
     gradient                   ...        0 min, 12.254 sec
 * total energy  : -1283.3458751 Eh     change       -0.4912598E-03 Eh
   gradient norm :     0.0092994 Eh/a0  converged?    E=F G=F D=F
   step length   :     0.1888427 a0

........................................................................
.............................. CYCLE   22 ..............................
........................................................................
   1  -1291.1457286 -0.129115E+04  0.599E-03    7.94       0.0  T
   2  -1291.1457305 -0.192056E-05  0.352E-03    7.94       1.0  T
   3  -1291.1457308 -0.329090E-06  0.818E-04    7.94       4.4  T
   4  -1291.1457309 -0.477030E-07  0.142E-04    7.94      25.6  T
     SCC iter.                  ...        0 min,  2.499 sec
     gradient                   ...        0 min, 12.348 sec
 * total energy  : -1283.3460765 Eh     change       -0.2013934E-03 Eh
   gradient norm :     0.0044316 Eh/a0  converged?    E=F G=F D=F
   step length   :     0.1322549 a0

........................................................................
.............................. CYCLE   23 ..............................
........................................................................
   1  -1291.1466899 -0.129115E+04  0.405E-03    7.94       0.0  T
   2  -1291.1466911 -0.121414E-05  0.235E-03    7.94       1.5  T
   3  -1291.1466913 -0.189177E-06  0.665E-04    7.94       5.5  T
   4  -1291.1466913 -0.230025E-07  0.962E-05    7.94      37.8  T
     SCC iter.                  ...        0 min,  2.494 sec
     gradient                   ...        0 min, 12.302 sec
 * total energy  : -1283.3461501 Eh     change       -0.7361019E-04 Eh
   gradient norm :     0.0025171 Eh/a0  converged?    E=F G=F D=F
   step length   :     0.1149566 a0

........................................................................
.............................. CYCLE   24 ..............................
........................................................................
   1  -1291.1470270 -0.129115E+04  0.201E-03    7.94       0.0  T
   2  -1291.1470271 -0.141166E-06  0.120E-03    7.94       3.0  T
   3  -1291.1470271 -0.292127E-07  0.212E-04    7.94      17.2  T
   4  -1291.1470271 -0.445743E-08  0.474E-05    7.94      76.8  T
     SCC iter.                  ...        0 min,  2.506 sec
     gradient                   ...        0 min, 12.316 sec
 * total energy  : -1283.3461717 Eh     change       -0.2163257E-04 Eh
   gradient norm :     0.0018163 Eh/a0  converged?    E=F G=F D=F
   step length   :     0.0673095 a0

........................................................................
.............................. CYCLE   25 ..............................
........................................................................
   1  -1291.1472577 -0.129115E+04  0.302E-03    7.94       0.0  T
   2  -1291.1472580 -0.243151E-06  0.180E-03    7.94       2.0  T
   3  -1291.1472580 -0.508901E-07  0.272E-04    7.94      13.4  T
   4  -1291.1472580 -0.821092E-08  0.650E-05    7.94      55.9  T
     SCC iter.                  ...        0 min,  2.452 sec
     gradient                   ...        0 min, 12.115 sec
 * total energy  : -1283.3461908 Eh     change       -0.1913434E-04 Eh
   gradient norm :     0.0017352 Eh/a0  converged?    E=F G=F D=F
   step length   :     0.1148825 a0

........................................................................
.............................. CYCLE   26 ..............................
........................................................................
   1  -1291.1470440 -0.129115E+04  0.115E-03    7.94       0.0  T
   2  -1291.1470440 -0.450148E-07  0.674E-04    7.94       5.4  T
   3  -1291.1470440 -0.704972E-08  0.118E-04    7.94      30.8  T
     SCC iter.                  ...        0 min,  1.849 sec
     gradient                   ...        0 min, 12.082 sec
 * total energy  : -1283.3461992 Eh     change       -0.8390176E-05 Eh
   gradient norm :     0.0005884 Eh/a0  converged?    E=F G=T D=F
   step length   :     0.0383129 a0

........................................................................
.............................. CYCLE   27 ..............................
........................................................................
   1  -1291.1471135 -0.129115E+04  0.773E-04    7.94       0.0  T
   2  -1291.1471135 -0.149905E-07  0.458E-04    7.94       7.9  T
   3  -1291.1471135 -0.289106E-08  0.661E-05    7.94      55.0  T
     SCC iter.                  ...        0 min,  1.856 sec
     gradient                   ...        0 min, 12.097 sec
 * total energy  : -1283.3462015 Eh     change       -0.2281421E-05 Eh
   gradient norm :     0.0004229 Eh/a0  converged?    E=F G=T D=F
   step length   :     0.0276274 a0

........................................................................
.............................. CYCLE   28 ..............................
........................................................................
   1  -1291.1469762 -0.129115E+04  0.623E-04    7.94       0.0  T
   2  -1291.1469762 -0.767204E-08  0.377E-04    7.94       9.7  T
   3  -1291.1469762 -0.251703E-08  0.498E-05    7.94      73.1  T
     SCC iter.                  ...        0 min,  1.859 sec
     gradient                   ...        0 min, 12.087 sec
 * total energy  : -1283.3462019 Eh     change       -0.4267445E-06 Eh
   gradient norm :     0.0005121 Eh/a0  converged?    E=T G=T D=F
   step length   :     0.0199173 a0

   *** GEOMETRY OPTIMIZATION CONVERGED AFTER 28 CYCLES ***

------------------------------------------------------------------------
 total energy gain   :        -0.0151492 Eh       -9.5063 kcal/mol
 total RMSD          :         0.1021406 a0        0.0541 Å
 total power (kW/mol):        -1.4205109 (step)   -0.0830 (real)
------------------------------------------------------------------------

 L-ANCopt (total)              0 d,  0 h,  7 min, 59.308 sec
 setup                          ...        0 min,  0.031 sec (  0.006%)
 model hessian                  ...        0 min, 15.444 sec (  3.222%)
 ANC generation                 ...        0 min,  5.151 sec (  1.075%)
 coordinate transformation      ...        0 min,  0.003 sec (  0.001%)
 Rational function              ...        0 min,  0.000 sec (  0.000%)
 singlepoint calculation        ...        7 min, 38.482 sec ( 95.655%)
 optimization log               ...        0 min,  0.191 sec (  0.040%)
 hessian update                 ...        0 min,  0.001 sec (  0.000%)

================
 final structure:
================
$coord
       -4.76596853292691      -13.04815636730074       -8.92443901349824      o
       -4.65456896617195      -11.21025712216009       -9.16050351256596      h
       -6.54051983072701      -13.45255336822306       -8.93722715314705      h
        1.06916961567803       -3.93021235285080       -3.09434821140994      o
       -0.36717452427898       -5.06489731569300       -3.33815944320797      h
        1.32757037103202       -3.77135768249006       -1.27704363940402      h
        5.64675524964915       -0.89489062738596       -2.85510499260686      o
        7.15753211504203        0.13936271297783       -2.71320879245600      h
        4.41739621483480       -0.25711583468337       -1.64178682016734      h
        7.17798760456893        1.18860065150892        3.64776045686492      o
        8.56679445673801        1.78351111440403        4.68461355368903      h
        7.22279666193502        2.20352092680596        2.09580489796593      h
        1.85186913908587        0.02469079340283       -6.27661424359012      o
        0.50719385712099        0.45410098914701       -7.45242913159194      h
        1.26824746758801       -1.25325934356995       -5.08798538981095      h
       -6.69585746239401      -10.88834179458123        0.05779567606510      o
       -8.11369151255786      -11.32543645167198        1.13868215104254      h
       -5.71605183431416       -9.56855298846399        0.91257593948793      h
        6.82813777296500       -3.80207570162797        3.40383754169608      o
        5.97558853095816       -4.14683434620805        5.02135088609105      h
        6.98863004336206       -1.94658575464907        3.38496370025400      h
       -3.43020326402472       -7.56074775870007        1.89992575058882      o
       -1.87609639896496       -8.19771621176598        1.13956800883706      h
       -4.00692303482604       -6.12582954622798        0.90983516808702      h
        6.06180505073105       -9.29184421114407        2.01332462471989      o
        5.64813918931396       -9.77178469951599        0.28018469331091      h
        6.47744415472402       -7.51857498392896        1.93020207708804      h
        3.78768625772000        4.94171282624687        4.73013554172786      o
        4.59041647141117        3.31351411982391        4.42464662578304      h
        2.71354003458098        5.28474140895615        3.28983236694619      h
        1.57992219676982        5.28224890067998        9.45441874146287      o
        0.35282859017804        3.98791110940800        9.00600102279503      h
        2.57491470684092        5.45890217637101        7.91918201549298      h
       -1.59515712183112        2.34114620930595        6.82182643260215      o
       -1.55349220656181        3.71798221242502        5.57115074030198      h
       -0.23588725996989        1.17422928736598        6.34294385968100      h
        0.15277132127680       -9.17544275258436      -11.31712172231317      o
       -1.27777907482291       -8.47863291404499      -10.42493746254300      h
        0.15142693244184      -10.97365216411543      -10.92763200028716      h
       -1.26098591235808        6.32014333363485        3.92207092629005      o
       -2.54654315512289        7.16450922777704        2.94389158370103      h
       -0.30063740116098        7.62458517189498        4.79144691251493      h
        9.71091478458504        2.16162556966297       -3.37569727807289      o
       11.44187898493589        1.68047792132999       -3.00241447506600      h
        9.14881018753502        3.30511914684308       -2.05206763117513      h
       -2.76050318998998       -2.34922842017132      -11.65227680550696      o
       -1.13836712257818       -3.15441423503301      -11.98410275490697      h
       -2.34936576620794       -0.55866215793192      -11.45325331591199      h
       -3.11684264531702        1.81786516884694       -5.05931496489511      o
       -3.97704979405196        2.64779995213700       -6.47718511505999      h
       -3.83681571728898        2.65886093140096       -3.56149439735901      h
      -12.69354714032902       -0.61511692641505       -6.18189662477195      o
      -12.46854681642999       -1.24479838740595       -7.88415824595318      h
      -14.50846998527490       -0.71183161801002       -5.81920520961193      h
       -9.71688187281497        3.39303389605223       -5.64055066444095      o
      -10.80952276577391        1.95804302040480       -6.07603213014096      h
       -8.68754575092699        2.76747484141702       -4.25260732896995      h
       -7.33590574092308        5.61972566810568        4.52041761923001      o
       -6.42016352346693        7.00704846878723        3.73071831072294      h
       -8.01907925370799        4.61667915322002        3.13055647969536      h
       -5.03897421555910        4.76920871883313       -8.56605777580092      o
       -5.67098847539299        6.13791713574394       -7.49444460840996      h
       -6.47076649646707        3.79144733543493       -9.19855415914901      h
        5.97715100796319       -1.49840747654207       -8.51419121354513      o
        4.36233704297897       -1.16933736268293       -7.65242063028197      h
        6.43876991860805        0.09151993492532       -9.32553374723616      h
       -5.84347393612507       -4.66311936949114       -1.48767638919301      o
       -7.44963470463599       -5.45793355349397       -0.99729054986200      h
       -6.24777533694500       -2.92115332015628       -1.89847035320497      h
       -7.55426939925558        0.16655761832964       -2.19836147210881      o
       -9.03556535063488       -0.32761036821604       -1.20923219395299      h
       -6.25978204902483        0.59112893267879       -0.87400403959307      h
       -6.18999359704205       -3.74718118707529        4.78850334139496      o
       -7.01551784538100       -5.36762805642896        4.55104380959199      h
       -4.45602466024302       -4.09925993267396        5.27756179961298      h
       -9.42448254768191        4.53200665179810        0.18817946013004      o
       -9.79753043450894        6.29899700641001       -0.13621219437905      h
      -10.90010789976083        3.54861223080484       -0.33394422919803      h
        3.38420891215195        0.45270766207862      -13.86112644806401      o
        2.95108263646903       -1.09417536762606      -12.97154457865388      h
        3.52458278895114        1.79612047426174      -12.60526350470907      h
        5.98662992151203       -5.68311611481595       -1.68264311886697      o
        4.41432798756317       -6.44689400561209       -2.16031026219799      h
        5.87044825905802       -3.89694057658519       -2.19638449940192      h
      -14.93747591893900       -5.08780850522602       -1.36936050180981      o
      -16.33127969123190       -5.60018234305803       -2.44901729904284      h
      -13.46955569292592       -5.05862455276302       -2.48457657931098      h
        6.83024480076897        4.52229970633991       -0.01629743840504      o
        5.01522472677701        4.77526520073808       -0.28644205157297      h
        7.41907368260704        6.16983730479986        0.51667768622595      h
      -14.30913905200699       -6.54981044801504       -8.54950789400879      o
      -13.21469432152102       -7.22785357991406       -9.87818715717319      h
      -13.12429844831206       -5.94695075786104       -7.21776416790907      h
       -9.95327861442903       -3.50065568747198        8.45038257501813      o
       -9.39967750466085       -3.03138390602799       10.13043285949189      h
       -8.47584192128709       -3.69333909529698        7.38147851289004      h
        8.77876323918377        7.34435982169866      -12.29250006415573      o
       10.60927810616809        7.32631884900007      -12.41950696501995      h
        8.29996356041580        5.60654278039262      -11.82329243664665      h
       10.00029487775011       -6.71757158215798        6.14286956812919      o
       11.32770851321199       -7.80955677536113        5.46239868319407      h
        9.19812242215394       -5.87172128957297        4.71950786604111      h
       10.38926065851692       -2.92190480955283       -0.90623023956107      o
       11.15914173371697       -1.38814083432131       -0.23109503250400      h
        9.01862037023307       -3.35536779112505        0.20133510574511      h
      -10.05295705525987       -6.64902812868408        0.19388836360846      o
       -9.71260397357199       -7.27170986939198        1.88505967263214      h
      -10.82642081086405       -8.05821665182704       -0.72731211730500      h
        2.20839625875100        6.29102128821622       -0.33039843378819      o
        1.97081111100699        8.06269810724705        0.07436415975202      h
        1.41111000763703        5.99989113704506       -1.94893899295690      h
       -1.15025657187199       -4.51316808549203        6.22544821805106      o
       -0.17497203167796       -4.79937192690408        4.69127808817806      h
       -0.88630575697802       -5.98428978543006        7.28911039884796      h
       -4.82244063322020        5.05655078961603       -1.81989664691896      o
       -6.36298960522243        4.64149922069599       -0.91405639274766      h
       -5.33280521502403        6.33507495106607       -3.03751326823799      h
        9.85477364408989       -2.95018281189902       -5.77672475098434      o
        8.23468391952400       -2.29045819296900       -6.41840746463695      h
        9.90423386503796       -2.73759719153502       -3.91171993350600      h
       11.27573001625079      -12.91397941608623       -3.06663086807462      o
       10.81101210943912      -11.29466611377099       -2.25313517326866      h
       12.75824530933175      -12.51414174222084       -4.09235770429692      h
        5.52321607262585        3.60839471994729       -5.96012753344686      o
        7.23959368681097        3.23835401695101       -5.42905371784101      h
        4.55744819609199        2.09234173989278       -5.55622350382202      h
      -11.19436763439197       -5.40713917865658       -4.90783881945307      o
       -9.98000213935902       -6.78717320940823       -4.70815166660799      h
      -10.21228179910790       -3.98584929726611       -5.55842746870923      h
       -5.80140807619008        1.18934548529212      -14.89245328833683      o
       -6.33052216038205        0.24125332294108      -16.33449284857796      h
       -3.97913161347891        1.54100232613902      -15.13490451951799      h
       14.68470708775400        0.57881956246590       -3.45800266190608      o
       15.37564192346410        1.89227664790461       -2.36156442190967      h
       15.49356293031200        0.70809191536308       -5.09592119434579      h
       11.68338927393817        1.40817864963763       -8.13360357492127      o
       12.41067666456248        2.90111671408465       -7.29829504370661      h
       11.18420622798384        0.27521768773703       -6.79028401749408      h
        3.08077625331101       -6.09131191087091       -7.20256749524702      o
        4.85566234214176       -6.55839589819104       -6.99504896147706      h
        2.59901524982395       -5.04270880895400       -5.76674445515697      h
      -17.36070342743006       -0.54432182497755       -4.48642622096001      o
      -18.78143740851619       -1.25893692918706       -5.39349741691489      h
      -17.69622056435297        1.24847286483902       -4.28622314685300      h
        1.66180155209200        9.98659450294594        6.11267304022098      o
        2.94876983017007        9.65855135819698        7.38663343564692      h
        0.52989157281608       11.21433723342513        6.92894134566596      h
      -11.05401995788698        5.52805965301653      -10.24418333905705      o
      -10.35332034165600        4.87206788137499       -8.68352337910390      h
       -9.65754423404420        5.73808771147914      -11.40788987039984      h
        5.61071373380615      -10.77055257608781       -2.90727905314786      o
        6.63750709903921       -9.79119157671315       -4.08922524127393      h
        6.30140191984118      -12.45695991585099       -2.78691997063513      h
       -1.10089672787499        2.04745658874299      -10.02737566595397      o
       -2.45848424325685        3.26091876453607       -9.80324520841996      h
        0.39069496221403        3.04864796571200      -10.42030915198396      h
       10.58395506261882       13.06795331964902       -2.53355580037634      o
       11.13869955768699       13.25915803033599       -0.80460364528881      h
        8.84686955747124       13.66444063091407       -2.53529435996602      h
        7.68935001080734        5.61207805603690       10.15358396863103      o
        8.23937628914702        5.12424902914417       11.85073154579620      h
        6.65999619295824        4.16549352422979        9.60432077901493      h
        3.37118275471606        4.20641679614061       14.22715619620510      o
        2.92227776000805        4.70381837515099       12.51091726390501      h
        3.44422663305701        2.37370867863812       14.22638861522501      h
       12.23379061413194        1.08413994546894        1.32809422914391      o
       12.07236621297696        2.89496809386718        1.58335646433506      h
       12.74884943412001        0.32826812645029        2.90834846758175      h
      -12.08199380336214        7.13782838004018        5.30633507626485      o
      -13.15926021537722        5.74323640059732        5.88147667248582      h
      -10.35557458818215        6.45423874090900        5.21290902768598      h
       -9.46926675590689        0.68998495305699        5.11240540646132      o
       -8.01783674812492       -0.07336300694396        5.93140927295305      h
       -9.70326515428901       -0.12661929123698        3.47737891665997      h
       -9.89074262431503      -12.78487580853306       -7.56305378069305      o
      -11.70741125478362      -12.59390832383801       -7.46354343400895      h
       -9.45257925085406      -13.87560448081178       -6.09915864185169      h
      -21.28038717801273        0.07245598667602       -0.75399758126389      o
      -21.93867245599304        0.31848597103401        0.92914438953801      h
      -19.48466154271309       -0.35796472112206       -0.53755670037695      h
       13.46184358923505       -6.02091997547274        2.15701287938899      o
       14.30574757464106       -4.95324272135193        0.90999821515372      h
       12.27046100960606       -7.01925644990896        1.16455849898002      h
      -13.19716903254698        6.80276802465045       -4.44251990760069      o
      -11.91629187013801        5.51534281480694       -4.82620823653698      h
      -13.16149835576797        7.04999884896795       -2.62366437495775      h
       -6.77887929386804        6.28596237525410      -13.35368798065926      o
       -5.00811373451715        6.72693106143701      -13.18030976860201      h
       -6.75176328476398        4.60475679680609      -14.07556930545383      h
        5.84494763493792       -6.48832303470487       12.41247822534904      o
        4.43822611387282       -5.83011438208803       13.37473626701214      h
        5.42829685746505       -8.25413061816017       12.16789619474596      h
      -19.74132915424194        2.61884800605427        8.72476948480434      o
      -20.15159657918790        4.05957286826710        9.74036881819079      h
      -18.04508721236385        2.97098284344302        8.02154872924796      h
      -13.33625627053590        1.98424546927806       -1.55381933928932      o
      -14.91352618515787        2.81280292202999       -1.93701604751496      h
      -13.00134703086102        0.86325342324798       -2.94759553122091      h
       10.83826302305586        7.75839995581076       -2.88156932234731      o
       10.86007369723307        9.58723337091187       -2.82710212245299      h
       11.10597101281298        7.14926020177128       -1.16277200894784      h
       -4.28474303071881       -8.63795038792914        6.77274110512614      o
       -3.31765824234401      -10.15716606133132        6.99550744848707      h
       -4.02152281675905       -8.16469938163998        5.01883432368185      h
      -17.59057709036885        4.48912539004359       -3.32985870953701      o
      -19.14082999636081        5.45145270962714       -3.32564418848996      h
      -16.34898586760888        5.50822046567191       -4.23761348210604      h
        1.99131339033698       -4.15839379152506      -11.74975904558007      o
        2.39890810047300       -4.71060337759001      -10.02073206206902      h
        1.81791312763501       -5.69640135594603      -12.69577999232192      h
       -4.59548098230830       -8.00968697010911       -8.69414984933416      o
       -5.48610868407308       -6.91651521665911       -9.88785385165632      h
       -5.72147166698018       -8.15213768407202       -7.23071099578214      h
       -2.51561826522890       -7.48148378768216       -3.84791068762113      o
       -3.91254640118106       -6.52430317678391       -3.09265002997308      h
       -2.62088135514401       -7.14738378629500       -5.63798387689605      h
        5.88650526082671        8.37875464074184       -4.21317778507703      o
        5.63402091333303        6.58943107986195       -4.53790990130603      h
        7.14826703078702        8.92435911947499       -5.45211772818805      h
        4.35793699298398       -4.89683739792592        7.62562515101285      o
        3.45173995647509       -6.39483557135507        7.03165259028696      h
        5.02001741628099       -5.29905683267599        9.28558300917908      h
       -9.41273091723601        9.64619252951276       -0.60257850082176      o
      -10.12648874386595       10.65093308469109        0.78469810588605      h
       -9.57853787273500       10.65482094090717       -2.10689720000396      h
       -3.58544839851992      -12.61037922434485       -3.93475325338119      o
       -3.14001927671606      -10.82285090614097       -3.80389632464601      h
       -3.94215288502794      -12.91329880671700       -5.71653464417640      h
       -4.95926896631980        5.75769095879132        8.93375201780195      o
       -6.12247549998698        5.40709618701297        7.54749210538606      h
       -3.62408805208294        4.53338580781005        8.77355246519900      h
       -0.05280395041903       -1.38574699128206       10.16064679782302      o
       -0.62481931706601       -2.35255070503204        8.70535248661298      h
        0.44886558050500       -2.63099388889097       11.39397630540703      h
       -9.15312979567614       -7.93395080695609        4.99305837688488      o
      -10.87371431304529       -7.47775639225308        5.40389268333308      h
       -8.48856744505596       -9.02928068167614        6.31117387300401      h
      -18.88002387668707        4.31604858398526       -8.73057387783387      o
      -20.10269523032818        3.52033671873989       -7.62580453154789      h
      -18.53893308945300        5.97758024201563       -8.06166986181509      h
       -8.39285514895275       10.86049081379605      -10.48507444386363      o
       -7.92990989862277        9.43918550884099      -11.52869472036600      h
       -6.83512147252868       11.56587060033512       -9.84420885451502      h
      -14.71012318726628      -11.15120233926887       -6.33156043534373      o
      -16.34107422926705      -11.48047890568791       -5.60586239646806      h
      -14.80897700082609       -9.53493895315864       -7.23166548426475      h
      -18.76317290637203       -2.53833155510142        9.58192144972395      o
      -17.20270537758878       -2.35486046395898       10.52088735313399      h
      -19.44698292647677       -0.84186289448647        9.50382241765301      h
        3.87843910053876        8.84568478906259      -13.17975855614093      o
        3.80457223993298       10.25270911452228      -12.01141377409184      h
        5.66150609514079        8.54116686835699      -13.45277003153898      h
        6.98714450787195        9.76568351992288        0.60492226763431      o
        5.30158391348915       10.38006103890412        1.02326596630400      h
        6.90819997953002        9.37696646828701       -1.19608952829898      h
        0.44599668455101        5.40542192969491       -5.17350577914102      o
       -0.78076823898298        3.99995926242215       -5.18539990248308      h
        2.02286772375714        4.70353013109421       -5.75753315231296      h
        3.16812098747362        4.53167559505475      -10.58492303731986      o
        3.40323994666692        6.09356183937283      -11.54457755610990      h
        4.48892861817192        4.40384080015098       -9.32366344729186      h
       16.55114621988917       -0.31868378641230       -8.33073748577180      o
       15.32872224649278       -1.42264192361576       -9.11137982951075      h
       17.39294587677501        0.58897680467201       -9.70886843550305      h
       15.43337856241227       -7.52759349863185      -10.12458049066600      o
       14.64460439607811       -5.87517653328554      -10.32452217769112      h
       16.65990058718702       -7.31523279628507       -8.76011238880529      h
       -9.81607673296480        6.41526614314466       13.93350974775392      o
       -8.92999048825285        4.83368793813976       13.67281710688002      h
       -8.48284160188590        7.65825006747328       14.09234891045804      h
       18.11317780038376       -1.87135664862123        3.25062770970234      o
       19.26973738818603       -3.29750724379192        3.47071240929698      h
       18.29597672753385       -1.27703308433906        1.51337301927964      h
       13.59593936557302       -2.04499852469050        5.35060497648694      o
       15.33290588223707       -1.81204437469600        4.77762213648402      h
       13.15410869015804       -3.66170503320578        4.59141594255207      h
       11.04937392396592        2.73680543812491        6.71554023164192      o
       11.46064042604601        3.18853311270398        8.45190928480214      h
       12.58718832211302        3.11223775677701        5.76152144198299      h
      -11.54863253836719       -2.26694561629472      -11.13605536280994      o
      -12.97656748553391       -2.01407601452911      -12.21984685906591      h
      -10.63818881956487       -0.65541648596176      -11.07549692517001      h
      -16.63063646366791       -1.06750870303822        1.00755457991523      o
      -17.37507447958010       -1.89037069298899        2.48914225811593      h
      -16.09119681975788       -2.42861362050971       -0.13384980469505      h
      -10.95338516095692       -1.71116235814801        0.97165924835806      o
      -12.67608380110700       -1.13177459269492        0.79720311243200      h
      -10.90273587152996       -3.53971953670123        0.74529890929193      h
        2.51573676691962       11.91525399674189       -4.14172447565116      o
        3.66224355502399       10.43865890741401       -4.11200402016503      h
        0.99780428886930       11.33132930485306       -3.28780958577103      h
       -6.86117419255708        2.17705550820501       12.59590415601008      o
       -5.22425485875901        2.61024446742107       13.29380578239500      h
       -6.40603620665794        1.29277805040189       10.99519675184112      h
       15.46610802304701        4.13899216776570        4.64113398353504      o
       15.40014864565403        5.57861082862886        5.79686261216094      h
       16.94259608623381        3.18684660107987        5.22443415123285      h
        2.40432205193399       -0.43886198908028        5.58997235369045      o
        3.46027847946509        0.45419570353363        6.82547923355631      h
        2.48803764564616       -2.18382887938189        6.12478554652849      h
       20.14118942299223       -2.22697889096717       -5.50390920369569      o
       19.92583273967581       -1.33089803235245       -3.91427622796889      h
       18.89258427015623       -1.48863505793901       -6.65094717297587      h
       13.25195010666176        1.58586333169302      -13.07104368014618      o
       11.97865035073507        0.92586947764918      -14.19256482430879      h
       12.89436101335896        0.85560750153895      -11.41787412728189      h
        7.86983916032187       -7.63513082497256       -6.30884801966006      o
        8.91275488557495       -8.37961269499808       -7.62955548864697      h
        8.60724809943604       -5.99149098904952       -5.92128344177108      h
      -22.45946958605097        2.28953022187742       -5.34332142239072      o
      -22.04046230312296        1.52605465189482       -3.71997291266826      h
      -22.95165637332883        4.00973664325620       -5.00685162756210      h
      -22.06133158556399        7.42855672331742       -3.91209051330075      o
      -20.95545478522618        8.21008169398720       -5.15768490108607      h
      -22.33867322775707        8.70991784964472       -2.65005193137036      h
       -8.14949923490737       12.50675143353694        9.81597343090762      o
       -9.77311806198923       11.62126623713946        9.88454904600401      h
       -7.16665232629185       11.76742162616665       11.18301140585726      h
       -4.88431262635885        9.08149082766705        1.48619480682093      o
       -6.48754514394704        9.34803946431903        0.58608154099401      h
       -4.48758995577410       10.64263706777583        2.39747464658584      h
        7.84985428644507       -4.81608962788828      -11.86759114119919      o
        6.94551798748923       -6.41498850782082      -11.80082801517198      h
        6.97099089802219       -3.73546483119892      -10.64632283821114      h
      -11.16274081146271       11.88053935632059        3.55138462563588      o
      -12.88727621515731       12.58919849352603        3.46933898803608      h
      -11.32523956244776       10.39368156768488        4.60391949589823      h
       -3.36156503852803       14.42967157734569       -2.64587568709970      o
       -2.89937156577700       12.63480015770098       -2.61432703136194      h
       -1.83092971568649       15.33558382705273       -2.21101745075009      h
       10.89363145933711       -9.63318898454041       -9.97310927910758      o
       12.63566814945924       -8.97279884683488      -10.00322383127319      h
       10.11166606913490       -9.12897602874987      -11.52820024447006      h
       -8.00977015414511        1.15411213229393      -10.31715254941217      o
       -6.99792836468411        0.82854244965096      -11.80988063168100      h
       -7.66691766157896       -0.13787586394033       -9.01966923899895      h
       -3.47129325152788       -2.79920769800299       14.78750852389197      o
       -3.97669464594893       -3.49882414599604       13.15779326949913      h
       -3.08280336649389       -1.03293479390987       14.50652672301097      h
      -10.82099853119239       -8.89412703164873      -11.37974657414377      o
      -10.18019926120792      -10.25565271436584      -10.35610327794517      h
       -9.41986386622136       -7.81028508008791      -11.81456630090291      h
       -7.71188059970703       -9.01879407422017       -4.81087748876398      o
       -8.57691439103002      -10.36900020665990       -5.72271085477104      h
       -7.33969794261404       -9.67448416207513       -3.12525835917389      h
      -14.09172628827583        7.35376394461748        0.60610733688703      o
      -13.26657261651808        7.48354314507001        2.25416986587791      h
      -15.34764480714819        6.01621579166118        0.78663775669414      h
      -11.91368284514000      -10.72438141616282       -2.07281753414692      o
      -12.80906315192014      -10.69179939723799       -3.68018678920587      h
      -13.16885492188377      -11.36325085548807       -0.86586093741105      h
       14.13320351974292       -1.84729624114996       10.41082155098699      o
       13.31081426571502       -3.38057069988186       10.97183726318907      h
       14.00273798348802       -1.90357278334303        8.55774122739103      h
       -1.45520697998209        7.11164373729907      -13.10832932824812      o
       -1.19842750725906        7.66489473054787      -11.35872344212221      h
       -0.15217969816002        7.95701020977402      -14.04803468879182      h
       13.72345348362110        6.39024164133653      -11.22832801280986      o
       13.41772610901704        6.22538508211808       -9.40480265535175      h
       13.58751397858594        4.69048998042803      -11.93531105928494      h
      -23.09458210657019       -4.44981808042854       -2.37162820034969      o
      -22.54636092601593       -2.77681989433974       -1.82091378227408      h
      -23.21555451929303       -4.35625004426698       -4.17808043735704      h
        8.06130411896384        7.32816426635580        5.29778876439176      o
        6.37128400944470        6.64123155424310        4.90242621064296      h
        8.53992422161102        6.50464954295302        6.86130547332998      h
       -1.81968817008512        2.12850638725513       13.32853612643891      o
       -0.46623396421102        3.13180893827512       14.01465276210103      h
       -1.09634106877506        1.06449977895890       11.99536640179886      h
       -5.02155718142483       -4.97154517221710       10.34775539882369      o
       -4.45007022410595       -6.19112226704519        9.08890696512515      h
       -6.43653204769200       -5.84517712987112       11.16413597893505      h
        3.85948709851977      -11.06821379985212       11.02732634353924      o
        3.25269261551394      -12.75055826397402       11.29448895082897      h
        5.11654838493985      -11.14885423855914        9.67232143932310      h
       -1.74782178111679        9.65202465068110       -2.40696808816002      o
       -1.74342813521498        8.18846432573483       -3.48519655682105      h
       -2.75591087738689        9.17407001275901       -0.92003883500177      h
        4.13721333792814       -0.81160337634329       13.73701919315309      o
        5.88084449868500       -1.35818038080500       13.91113490043003      h
        3.04656954476786       -2.23984914563401       14.09429855451496      h
       -8.57605184678462      -14.67740927265110       -3.20309309455247      o
       -9.64668819593558      -13.46477109541713       -2.32642422181907      h
       -6.85508539388069      -14.10058808139309       -2.95932174730984      h
       -7.65754850331250       15.20411121369846        5.00593337514199      o
       -7.63940279463303       15.06610885169203        6.82081572552864      h
       -8.97475608778053       14.01187912987804        4.46539353410635      h
        7.58510345153458       12.07334263947751        6.78880469769211      o
        6.44433859119287       11.88126840975707        8.21000846105884      h
        7.64880128768194       10.37089085385121        6.01663929852180      h
       18.48600373511954        2.14198370485532      -12.26339453229718      o
       16.88194430558089        2.08511368666905      -13.14085951614806      h
       18.76193116102520        3.87285653790287      -11.75332480462181      h
       16.13122919718825       -3.84761885308546       -1.55315743934286      o
       15.71641724306112       -2.13986137839715       -2.15917976464107      h
       17.93362109985601       -4.17033827814099       -1.69343574173999      h
      -15.39340306875624        3.40265324779768        6.35176554638825      o
      -14.78912693886388        1.63840355687249        6.38667718979497      h
      -16.20769036674005        3.55518322140283        4.70180190944046      h
        4.05961074442090      -15.97176758502397       -6.02276942928328      o
        5.51491600414059      -15.04110266832036       -6.64292346840405      h
        2.78568309643488      -15.70969201057539       -7.31842027471118      h
      -12.02638362918288        9.24576865963644       10.07089811058801      o
      -11.34473206463903        8.14868083919604       11.38292300069740      h
      -11.88331961354501        8.31091723423583        8.48957240415067      h
        0.88961386265891       -9.31110855424904       -0.17991513826577      o
        0.43864355509199       -9.51134044422102       -1.94478337844707      h
        1.59320916473199      -10.90998506436185        0.39187606493086      h
      -16.55415270603378       11.14187310127455       -1.62756323240255      o
      -15.33181332054984       12.44329139407794       -2.16530941314428      h
      -15.54855870034908        9.79377849210694       -0.84155089600804      h
      -13.98652458724303       -1.34463457915791        6.34772922460825      o
      -14.02934317963692       -1.61815463971403        8.17117539310010      h
      -12.21511418706778       -0.94115515791402        5.98098914473400      h
       14.92163529287053        9.84732063883557        1.99246938294374      o
       16.32609434899008        9.91941879626519        3.21888126863174      h
       13.65358676693727       11.09916132167063        2.45404418152782      h
      -21.22936608991843       -2.57391684687945       -7.27985579595829      o
      -20.05279347075499       -2.60862510588599       -8.72722104970958      h
      -22.12606113743434       -0.99125042410255       -7.35487922496909      h
        5.75704033786303       15.12885347945593       -2.24312607820638      o
        4.50875910502991       13.86630814445792       -2.86657031577701      h
        5.91281210817694       16.37573102687700       -3.54327081118295      h
        8.73496991140484       10.00455637738453       -7.99926758190597      o
       10.47939384715858       10.48445309743697       -7.62062007747599      h
        8.78845117040704        9.00322555092388       -9.55610264186292      h
       10.41072008498589       -8.34052401514832       -1.25053372644870      o
       11.54113949605479       -7.61937642086090       -2.53649515721769      h
        8.82535305844417       -7.41753611426893       -1.44841457680900      h
        1.85963670377687       -4.72457879085692        1.89880621174104      o
        3.63427956465903       -4.34903902786815        2.16056515561502      h
        1.73151966771998       -6.51198792177903        1.50595892215801      h
       -8.19937218560818      -11.68888581739145        8.75027120798755      o
       -7.45570642604711      -12.97169322015137        7.62146097623273      h
       -9.98842418266399      -12.04409809843308        8.71710788555010      h
      -14.00910710486703       -5.92233972695708        3.91267755213073      o
      -14.18757690097998       -4.26803559737191        4.70807278831292      h
      -14.25654590864298       -5.70089658312205        2.11017306639406      h
       17.78894404854120       -8.57492158544365        2.98184326722525      o
       16.20862915122191       -7.61440736228913        2.84033987590503      h
       18.06992536754090       -9.32955821722214        1.33620745759221      h
       24.03807148251202       -1.14492994200080        1.68141794339506      o
       24.73086051789085       -1.92969919266791        0.18097134710594      h
       23.45078515694316       -2.49713908662667        2.75656503229188      h
       20.31560368807182       -5.71399865519444        8.90040650008276      o
       18.55389600754978       -6.23180193797409        8.57791375275603      h
       20.99452849958109       -6.92100521855417       10.06164560113580      h
      -20.68918626000718       -7.14786005940688        1.38630946310905      o
      -20.29008421809402       -5.75914101391987        2.52038977562980      h
      -21.70778817801132       -6.39964109266516        0.05563048155162      h
      -10.29465678646081        3.96756257099927        8.86566633135399      o
      -10.07597913258777        2.79591991689083        7.46771851515316      h
       -8.94696432703889        3.63941208622603       10.04443799871527      h
       -8.77206777762931       -7.77598242014405       12.23232865921042      o
      -10.51419854776107       -7.37970695641807       11.85325164671685      h
       -8.38759045636181       -9.25151502541952       11.22428851251110      h
       -6.81548585855775      -15.14359202150890        5.39695434456075      o
       -8.27334929981683      -14.68669988918331        4.37184781938723      h
       -5.38276752349533      -15.03987532835401        4.26212587763134      h
      -15.50267727093930      -12.67597635223366        0.79079049012777      o
      -16.79777878928475      -12.38173108402316       -0.48118388288285      h
      -16.09273675837799      -11.69720408167223        2.25710456889204      h
       15.11006495271524      -11.08945821670406       -5.79660648985593      o
       14.57631204882098       -9.31901148038640       -5.60419101644712      h
       15.55492854228091      -11.27556072005127       -7.54106617412109      h
       11.55515518089300        6.14286411400180        1.86579249229301      o
       12.96724387608799        7.30022583907003        2.12718907762598      h
       10.29730342437583        6.57253083078380        3.15140204758628      h
       11.22560944058745        9.76146159247324        9.78196118007794      o
       10.07957965805300        8.41363182216081       10.21886340788693      h
       10.24623075243249       10.96240670810367        8.80711432989421      h
      -17.28409261142514       -9.72383637724721        4.47843199535811      o
      -18.81694771918188       -9.15825344497978        3.66838047179115      h
      -16.13925000310920       -8.26079012352106        4.41099311410310      h
       13.03830283013308        3.17601252536808       11.37376838018294      o
       13.50419964247901        1.39547142993293       11.34103862588497      h
       12.01549522857408        3.45299376904411       12.85035972445204      h
        7.16665524157332      -15.63367947632527       -1.63405689919490      o
        8.86791435595708      -15.30586926014204       -2.22624127745006      h
[...]
   382   8 o      384   1 h                                       0.9691131
   385   8 o      386   1 h                                       0.9632148
   385   8 o      387   1 h                                       0.9827089
   388   8 o      389   1 h                                       0.9697175
   388   8 o      390   1 h                                       0.9898075
   391   8 o      392   1 h                                       0.9680019
   391   8 o      393   1 h                                       0.9659809
   394   8 o      395   1 h                                       0.9837244
   394   8 o      396   1 h                                       0.9717923
   397   8 o      398   1 h                                       0.9870178
   397   8 o      399   1 h                                       0.9770036
   400   8 o      401   1 h                                       0.9712445
   400   8 o      402   1 h                                       0.9714816
   403   8 o      404   1 h                                       0.9742698
   403   8 o      405   1 h                                       0.9750377
   406   8 o      407   1 h                                       0.9697420
   406   8 o      408   1 h                                       0.9726499
   409   8 o      410   1 h                                       0.9867381
   409   8 o      411   1 h                                       0.9823893
   412   8 o      413   1 h                                       0.9759846
   412   8 o      414   1 h                                       0.9807910
   415   8 o      416   1 h                                       0.9874212
   415   8 o      417   1 h                                       0.9740461
   418   8 o      419   1 h                                       0.9872233
   418   8 o      420   1 h                                       0.9634113
   421   8 o      422   1 h                                       0.9957690
   421   8 o      423   1 h                                       0.9568228
   424   8 o      425   1 h                                       0.9781466
   424   8 o      426   1 h                                       0.9799441
   427   8 o      428   1 h                                       0.9831308
   427   8 o      429   1 h                                       0.9763933
   430   8 o      431   1 h                                       0.9698399
   430   8 o      432   1 h                                       0.9708022
   433   8 o      434   1 h                                       0.9861522
   433   8 o      435   1 h                                       0.9653653
   436   8 o      437   1 h                                       0.9759307
   436   8 o      438   1 h                                       0.9698948
   439   8 o      440   1 h                                       0.9814785
   439   8 o      441   1 h                                       0.9694990
   442   8 o      443   1 h                                       0.9681427
   442   8 o      444   1 h                                       0.9655587
   445   8 o      446   1 h                                       0.9865624
   445   8 o      447   1 h                                       0.9563743
   448   8 o      449   1 h                                       0.9720111
   448   8 o      450   1 h                                       0.9711647
   451   8 o      452   1 h                                       0.9721354
   451   8 o      453   1 h                                       0.9632568
   454   8 o      455   1 h                                       0.9664917
   454   8 o      456   1 h                                       0.9672753
   457   8 o      458   1 h                                       0.9735941
   457   8 o      459   1 h                                       0.9687377
   460   8 o      461   1 h                                       0.9731377
   460   8 o      462   1 h                                       0.9837920
   463   8 o      464   1 h                                       0.9838140
   463   8 o      465   1 h                                       0.9577491
   466   8 o      467   1 h                                       0.9760142
   466   8 o      468   1 h                                       0.9785626
   469   8 o      470   1 h                                       0.9643394
   469   8 o      471   1 h                                       0.9688104
   472   8 o      473   1 h                                       0.9650360
   472   8 o      474   1 h                                       0.9837172
   475   8 o      476   1 h                                       0.9740970
   475   8 o      477   1 h                                       0.9617607
   478   8 o      479   1 h                                       0.9689038
   478   8 o      480   1 h                                       0.9660052
   481   8 o      482   1 h                                       0.9774783
   481   8 o      483   1 h                                       0.9775251
   484   8 o      485   1 h                                       0.9575190
   484   8 o      486   1 h                                       0.9908365
   487   8 o      488   1 h                                       0.9746086
   487   8 o      489   1 h                                       0.9802168
   490   8 o      491   1 h                                       0.9770486
   490   8 o      492   1 h                                       0.9641416
   493   8 o      494   1 h                                       0.9902895
   493   8 o      495   1 h                                       0.9634995
   496   8 o      497   1 h                                       0.9628916
   496   8 o      498   1 h                                       0.9785057
   499   8 o      500   1 h                                       0.9592870
   499   8 o      501   1 h                                       0.9777880
   502   8 o      503   1 h                                       0.9671210
   502   8 o      504   1 h                                       0.9598747
   505   8 o      506   1 h                                       0.9632902
   505   8 o      507   1 h                                       0.9701227
   508   8 o      509   1 h                                       0.9704807
   508   8 o      510   1 h                                       0.9746860
   511   8 o      512   1 h                                       0.9780632
   511   8 o      513   1 h                                       0.9777570
   514   8 o      515   1 h                                       0.9577046
   514   8 o      516   1 h                                       0.9823539
   517   8 o      518   1 h                                       0.9756521
   517   8 o      519   1 h                                       0.9666997
   520   8 o      521   1 h                                       0.9801255
   520   8 o      522   1 h                                       0.9636885
   523   8 o      524   1 h                                       0.9929596
   523   8 o      525   1 h                                       0.9610315
   526   8 o      527   1 h                                       0.9678313
   526   8 o      528   1 h                                       0.9907950
   529   8 o      530   1 h                                       0.9748741
   529   8 o      531   1 h                                       0.9774908
   532   8 o      533   1 h                                       0.9715448
   532   8 o      534   1 h                                       0.9748882
   535   8 o      536   1 h                                       0.9619728
   535   8 o      537   1 h                                       0.9815793
   538   8 o      539   1 h                                       0.9737013
   538   8 o      540   1 h                                       0.9610077
   541   8 o      542   1 h                                       0.9908818
   541   8 o      543   1 h                                       0.9568711
   544   8 o      545   1 h                                       0.9744851
   544   8 o      546   1 h                                       0.9710505
   547   8 o      548   1 h                                       0.9687207
   547   8 o      549   1 h                                       0.9754379
   550   8 o      551   1 h                                       0.9728468
   550   8 o      552   1 h                                       0.9670645
   553   8 o      554   1 h                                       0.9788125
   553   8 o      555   1 h                                       0.9677155
   556   8 o      557   1 h                                       0.9824571
   556   8 o      558   1 h                                       0.9591354
   559   8 o      560   1 h                                       0.9720544
   559   8 o      561   1 h                                       0.9711264
   562   8 o      563   1 h                                       0.9693738
   562   8 o      564   1 h                                       0.9737904
   565   8 o      566   1 h                                       0.9706412
   565   8 o      567   1 h                                       0.9755052
   568   8 o      569   1 h                                       0.9675945
   568   8 o      570   1 h                                       0.9715288
   571   8 o      572   1 h                                       0.9737332
   571   8 o      573   1 h                                       0.9712031
   574   8 o      575   1 h                                       0.9715706
   574   8 o      576   1 h                                       0.9604458
   577   8 o      578   1 h                                       0.9741541
   577   8 o      579   1 h                                       0.9765351
   580   8 o      581   1 h                                       0.9666026
   580   8 o      582   1 h                                       0.9790295
   583   8 o      584   1 h                                       0.9710114
   583   8 o      585   1 h                                       0.9695750
   586   8 o      587   1 h                                       0.9814112
   586   8 o      588   1 h                                       0.9915606
   589   8 o      590   1 h                                       0.9681150
   589   8 o      591   1 h                                       0.9608048
   592   8 o      593   1 h                                       0.9773556
   592   8 o      594   1 h                                       0.9680567
   595   8 o      596   1 h                                       0.9569716
   595   8 o      597   1 h                                       0.9847565
   598   8 o      599   1 h                                       0.9697327
   598   8 o      600   1 h                                       0.9724348
   601   8 o      602   1 h                                       0.9658573
   601   8 o      603   1 h                                       0.9749501
   604   8 o      605   1 h                                       0.9688864
   604   8 o      606   1 h                                       0.9726621
   607   8 o      608   1 h                                       0.9709866
   607   8 o      609   1 h                                       0.9683264
   610   8 o      611   1 h                                       0.9668267
   610   8 o      612   1 h                                       0.9654297
   613   8 o      614   1 h                                       0.9684142
   613   8 o      615   1 h                                       0.9744841
   616   8 o      617   1 h                                       0.9814304
   616   8 o      618   1 h                                       0.9820783
   619   8 o      620   1 h                                       0.9684968
   619   8 o      621   1 h                                       0.9708131
   622   8 o      623   1 h                                       0.9567297
   622   8 o      624   1 h                                       0.9886337
   625   8 o      627   1 h                                       0.9719463
   628   8 o      629   1 h                                       0.9649000
   628   8 o      630   1 h                                       0.9865026
   631   8 o      632   1 h                                       0.9779565
   631   8 o      633   1 h                                       0.9769003
   634   8 o      635   1 h                                       0.9705051
   634   8 o      636   1 h                                       0.9752528
   637   8 o      638   1 h                                       0.9592580
   637   8 o      639   1 h                                       0.9762538
   640   8 o      641   1 h                                       0.9856141
   640   8 o      642   1 h                                       0.9664606
   643   8 o      644   1 h                                       0.9702480
   643   8 o      645   1 h                                       0.9654756
   646   8 o      647   1 h                                       0.9609215
   646   8 o      648   1 h                                       0.9872976
   649   8 o      650   1 h                                       0.9644472
   649   8 o      651   1 h                                       0.9681768
   652   8 o      653   1 h                                       0.9785119
   652   8 o      654   1 h                                       0.9681703
   655   8 o      656   1 h                                       0.9703507
   655   8 o      657   1 h                                       0.9642721
   658   8 o      659   1 h                                       0.9711550
   658   8 o      660   1 h                                       0.9763129
   661   8 o      662   1 h                                       0.9623826
   661   8 o      663   1 h                                       0.9806001
   664   8 o      665   1 h                                       0.9748416
   664   8 o      666   1 h                                       0.9840194
   667   8 o      668   1 h                                       0.9759003
   667   8 o      669   1 h                                       0.9661551
   670   8 o      671   1 h                                       0.9748847
   670   8 o      672   1 h                                       0.9683536
   673   8 o      674   1 h                                       0.9698771
   673   8 o      675   1 h                                       0.9809811
   676   8 o      677   1 h                                       0.9919462
   676   8 o      678   1 h                                       0.9666049
   679   8 o      680   1 h                                       0.9792469
   679   8 o      681   1 h                                       0.9708186
   682   8 o      683   1 h                                       0.9695120
   682   8 o      684   1 h                                       0.9792504
   685   8 o      686   1 h                                       0.9721452
   685   8 o      687   1 h                                       0.9784691
   688   8 o      689   1 h                                       0.9706670
   688   8 o      690   1 h                                       0.9762651
   691   8 o      692   1 h                                       0.9822359
   691   8 o      693   1 h                                       0.9599471
   694   8 o      695   1 h                                       0.9756072
   694   8 o      696   1 h                                       0.9742914
   697   8 o      698   1 h                                       0.9665125
   697   8 o      699   1 h                                       0.9709001
   700   8 o      701   1 h                                       0.9864907
   700   8 o      702   1 h                                       0.9552502
   703   8 o      704   1 h                                       0.9784276
   703   8 o      705   1 h                                       0.9648414
   706   8 o      707   1 h                                       0.9732782
   706   8 o      708   1 h                                       0.9746844
   709   8 o      710   1 h                                       0.9713832
   709   8 o      711   1 h                                       0.9708235
   712   8 o      713   1 h                                       0.9735654
   712   8 o      714   1 h                                       0.9870461
   715   8 o      716   1 h                                       0.9777420
   715   8 o      717   1 h                                       0.9658990
   718   8 o      719   1 h                                       0.9668874
   718   8 o      720   1 h                                       0.9875280
   721   8 o      722   1 h                                       0.9760439
   721   8 o      723   1 h                                       0.9731239
   724   8 o      725   1 h                                       0.9740502
   724   8 o      726   1 h                                       0.9696173
   727   8 o      728   1 h                                       0.9651074
   727   8 o      729   1 h                                       0.9632017
   730   8 o      731   1 h                                       0.9559492
   730   8 o      732   1 h                                       0.9809024
   733   8 o      734   1 h                                       0.9773648
   733   8 o      735   1 h                                       0.9570173
   736   8 o      737   1 h                                       0.9627093
   736   8 o      738   1 h                                       0.9766292
   739   8 o      740   1 h                                       0.9712964
   739   8 o      741   1 h                                       0.9728138
   742   8 o      743   1 h                                       0.9897080
   742   8 o      744   1 h                                       0.9646247
   745   8 o      746   1 h                                       0.9746992
   745   8 o      747   1 h                                       0.9658334
   748   8 o      749   1 h                                       0.9902920
   748   8 o      750   1 h                                       0.9786143
   751   8 o      752   1 h                                       0.9679632
   751   8 o      753   1 h                                       0.9608038
   754   8 o      755   1 h                                       0.9609553
   754   8 o      756   1 h                                       0.9624675

 * 1 distinct bonds (by element types)

   Z      Z             #   av. dist./Å        max./Å        min./Å
   1 H    8 O         502     0.9734014     0.9972375     0.9552080


optimized geometry written to: xtbopt.coord


           -------------------------------------------------
          | TOTAL ENERGY            -1283.346201942159 Eh   |
          | GRADIENT NORM               0.004353470606 Eh/α |
          | HOMO-LUMO GAP               7.938195365841 eV   |
           -------------------------------------------------

------------------------------------------------------------------------
 * finished run on 2022/11/24 at 09:16:30.182     
------------------------------------------------------------------------
 total:
 * wall-time:     0 d,  0 h,  8 min, 37.813 sec
 *  cpu-time:     0 d,  0 h, 12 min, 48.491 sec
 * ratio c/w:     1.484 speedup
 SCF:
 * wall-time:     0 d,  0 h,  0 min, 22.585 sec
 *  cpu-time:     0 d,  0 h,  0 min, 36.687 sec
 * ratio c/w:     1.624 speedup
 ANC optimizer:
 * wall-time:     0 d,  0 h,  8 min, 14.146 sec
 *  cpu-time:     0 d,  0 h, 12 min, 10.021 sec
 * ratio c/w:     1.477 speedup

