      -----------------------------------------------------------      
     |                   =====================                   |     
     |                           x T B                           |     
     |                   =====================                   |     
     |                         S. Grimme                         |     
     |          Mulliken Center for Theoretical Chemistry        |     
     |                    University of Bonn                     |     
      -----------------------------------------------------------      

   * xtb version 6.5.1 (579679a) compiled by 'ehlert@majestix' on 2022-07-11

   xtb is free software: you can redistribute it and/or modify it under
   the terms of the GNU Lesser General Public License as published by
   the Free Software Foundation, either version 3 of the License, or
   (at your option) any later version.
   
   xtb is distributed in the hope that it will be useful,
   but WITHOUT ANY WARRANTY; without even the implied warranty of
   MERCHANTABILITY or FITNESS FOR A PARTICULAR PURPOSE.  See the
   GNU Lesser General Public License for more details.
   
   Cite this work as:
   * C. Bannwarth, E. Caldeweyher, S. Ehlert, A. Hansen, P. Pracht,
     J. Seibert, S. Spicher, S. Grimme, WIREs Comput. Mol. Sci., 2020, 11,
     e01493. DOI: 10.1002/wcms.1493
   
   for GFN2-xTB:
   * C. Bannwarth, S. Ehlert and S. Grimme., J. Chem. Theory Comput., 2019,
     15, 1652-1671. DOI: 10.1021/acs.jctc.8b01176
   for GFN1-xTB:
   * S. Grimme, C. Bannwarth, P. Shushkov, J. Chem. Theory Comput., 2017,
     13, 1989-2009. DOI: 10.1021/acs.jctc.7b00118
   for GFN0-xTB:
   * P. Pracht, E. Caldeweyher, S. Ehlert, S. Grimme, ChemRxiv, 2019, preprint.
     DOI: 10.26434/chemrxiv.8326202.v1
   for GFN-FF:
   * S. Spicher and S. Grimme, Angew. Chem. Int. Ed., 2020, 59, 15665-15673.
     DOI: 10.1002/anie.202004239
   
   for ALPB and GBSA implicit solvation:
   * S. Ehlert, M. Stahn, S. Spicher, S. Grimme, J. Chem. Theory Comput.,
     2021, 17, 4250-4261. DOI: 10.1021/acs.jctc.1c00471
   
   for DFT-D4:
   * E. Caldeweyher, C. Bannwarth and S. Grimme, J. Chem. Phys., 2017,
     147, 034112. DOI: 10.1063/1.4993215
   * E. Caldeweyher, S. Ehlert, A. Hansen, H. Neugebauer, S. Spicher,
     C. Bannwarth and S. Grimme, J. Chem. Phys., 2019, 150, 154122.
     DOI: 10.1063/1.5090222
   * E. Caldeweyher, J.-M. Mewes, S. Ehlert and S. Grimme, Phys. Chem. Chem. Phys.
     2020, 22, 8499-8512. DOI: 10.1039/D0CP00502A
   
   for sTDA-xTB:
   * S. Grimme and C. Bannwarth, J. Chem. Phys., 2016, 145, 054103.
     DOI: 10.1063/1.4959605
   
   in the mass-spec context:
   * V. Asgeirsson, C. Bauer and S. Grimme, Chem. Sci., 2017, 8, 4879.
     DOI: 10.1039/c7sc00601b
   * J. Koopman and S. Grimme, ACS Omega 2019, 4, 12, 15120-15133.
     DOI: 10.1021/acsomega.9b02011
   
   for metadynamics refer to:
   * S. Grimme, J. Chem. Theory Comput., 2019, 155, 2847-2862
     DOI: 10.1021/acs.jctc.9b00143
   
   for SPH calculations refer to:
   * S. Spicher and S. Grimme, J. Chem. Theory Comput., 2021, 17, 1701-1714
     DOI: 10.1021/acs.jctc.0c01306
   
   with help from (in alphabetical order)
   P. Atkinson, C. Bannwarth, F. Bohle, G. Brandenburg, E. Caldeweyher
   M. Checinski, S. Dohm, S. Ehlert, S. Ehrlich, I. Gerasimov, C. Hölzer
   A. Katbashev, J. Koopman, C. Lavigne, S. Lehtola, F. März, M. Müller,
   F. Musil, H. Neugebauer, J. Pisarek, C. Plett, P. Pracht, F. Pultar,
   J. Seibert, P. Shushkov, S. Spicher, M. Stahn, M. Steiner, T. Strunk,
   J. Stückrath, T. Rose, and J. Unsleber
   
 * started run on 2022/11/24 at 09:28:10.077     

           -------------------------------------------------
          |                Calculation Setup                |
           -------------------------------------------------

          program call               : xtb solvent_cluster.coord --gfn2 --sp --lmo --chrg 0
          hostname                   : cn0341
          coordinate file            : solvent_cluster.coord
          omp threads                :                     2

   ID    Z sym.   atoms
    1    8 o      1, 4, 7, 10, 13, 16, 19, 22, 25, 28, 31, 34, 37, 40, 43,
                  46, 49, 52, 55, 58, 61, 64, 67, 70, 73, 76, 79, 82, 85, 88,
                  91, 94, 97, 100, 103, 106, 109, 112, 115, 118, 121, 124,
                  127, 130, 133, 136, 139, 142, 145, 148, 151, 154, 157, 160,
                  163, 166, 169, 172, 175, 178, 181, 184, 187, 190, 193, 196,
                  199, 202, 205, 208, 211, 214, 217, 220, 223, 226, 229, 232,
                  235, 238, 241, 244, 247, 250, 253, 256, 259, 262, 265, 268,
                  271, 274, 277, 280, 283, 286, 289, 292, 295, 298, 301, 304,
                  307, 310, 313, 316, 319, 322, 325, 328, 331, 334, 337, 340,
                  343, 346, 349, 352, 355, 358, 361, 364, 367, 370, 373, 376,
                  379, 382, 385, 388, 391, 394, 397, 400, 403, 406, 409, 412,
                  415, 418, 421, 424, 427, 430, 433, 436, 439, 442, 445, 448,
                  451, 454, 457, 460, 463, 466, 469, 472, 475, 478, 481, 484,
                  487, 490, 493, 496, 499, 502, 505, 508, 511, 514, 517, 520,
                  523, 526, 529, 532, 535, 538, 541, 544, 547, 550, 553, 556,
                  559, 562, 565, 568, 571, 574, 577, 580, 583, 586, 589, 592,
                  595, 598, 601, 604, 607, 610, 613, 616, 619, 622, 625, 628,
                  631, 634, 637, 640, 643, 646, 649, 652, 655, 658, 661, 664,
                  667, 670, 673, 676, 679, 682, 685, 688, 691, 694, 697, 700,
                  703, 706, 709, 712, 715, 718, 721, 724, 727, 730, 733, 736,
                  739, 742, 745, 748, 751, 754
    2    1 h      2, 3, 5, 6, 8, 9, 11, 12, 14, 15, 17, 18, 20, 21, 23, 24,
                  26, 27, 29, 30, 32, 33, 35, 36, 38, 39, 41, 42, 44, 45, 47,
                  48, 50, 51, 53, 54, 56, 57, 59, 60, 62, 63, 65, 66, 68, 69,
                  71, 72, 74, 75, 77, 78, 80, 81, 83, 84, 86, 87, 89, 90, 92,
                  93, 95, 96, 98, 99, 101, 102, 104, 105, 107, 108, 110, 111,
                  113, 114, 116, 117, 119, 120, 122, 123, 125, 126, 128, 129,
                  131, 132, 134, 135, 137, 138, 140, 141, 143, 144, 146, 147,
                  149, 150, 152, 153, 155, 156, 158, 159, 161, 162, 164, 165,
                  167, 168, 170, 171, 173, 174, 176, 177, 179, 180, 182, 183,
                  185, 186, 188, 189, 191, 192, 194, 195, 197, 198, 200, 201,
                  203, 204, 206, 207, 209, 210, 212, 213, 215, 216, 218, 219,
                  221, 222, 224, 225, 227, 228, 230, 231, 233, 234, 236, 237,
                  239, 240, 242, 243, 245, 246, 248, 249, 251, 252, 254, 255,
                  257, 258, 260, 261, 263, 264, 266, 267, 269, 270, 272, 273,
                  275, 276, 278, 279, 281, 282, 284, 285, 287, 288, 290, 291,
                  293, 294, 296, 297, 299, 300, 302, 303, 305, 306, 308, 309,
                  311, 312, 314, 315, 317, 318, 320, 321, 323, 324, 326, 327,
                  329, 330, 332, 333, 335, 336, 338, 339, 341, 342, 344, 345,
                  347, 348, 350, 351, 353, 354, 356, 357, 359, 360, 362, 363,
                  365, 366, 368, 369, 371, 372, 374, 375, 377, 378, 380, 381,
                  383, 384, 386, 387, 389, 390, 392, 393, 395, 396, 398, 399,
                  401, 402, 404, 405, 407, 408, 410, 411, 413, 414, 416, 417,
                  419, 420, 422, 423, 425, 426, 428, 429, 431, 432, 434, 435,
                  437, 438, 440, 441, 443, 444, 446, 447, 449, 450, 452, 453,
                  455, 456, 458, 459, 461, 462, 464, 465, 467, 468, 470, 471,
                  473, 474, 476, 477, 479, 480, 482, 483, 485, 486, 488, 489,
                  491, 492, 494, 495, 497, 498, 500, 501, 503, 504, 506, 507,
                  509, 510, 512, 513, 515, 516, 518, 519, 521, 522, 524, 525,
                  527, 528, 530, 531, 533, 534, 536, 537, 539, 540, 542, 543,
                  545, 546, 548, 549, 551, 552, 554, 555, 557, 558, 560, 561,
                  563, 564, 566, 567, 569, 570, 572, 573, 575, 576, 578, 579,
                  581, 582, 584, 585, 587, 588, 590, 591, 593, 594, 596, 597,
                  599, 600, 602, 603, 605, 606, 608, 609, 611, 612, 614, 615,
                  617, 618, 620, 621, 623, 624, 626, 627, 629, 630, 632, 633,
                  635, 636, 638, 639, 641, 642, 644, 645, 647, 648, 650, 651,
                  653, 654, 656, 657, 659, 660, 662, 663, 665, 666, 668, 669,
                  671, 672, 674, 675, 677, 678, 680, 681, 683, 684, 686, 687,
                  689, 690, 692, 693, 695, 696, 698, 699, 701, 702, 704, 705,
                  707, 708, 710, 711, 713, 714, 716, 717, 719, 720, 722, 723,
                  725, 726, 728, 729, 731, 732, 734, 735, 737, 738, 740, 741,
                  743, 744, 746, 747, 749, 750, 752, 753, 755, 756

molecular fragmentation (1/2 indicates fragments):
111222222222222222222222222222222222222222222222222222222222222222222222
222222222222222222222222222222222222222222222222222222222222222222222222
222222222222222222222222222222222222222222222222222222222222222222222222
222222222222222222222222222222222222222222222222222222222222222222222222
222222222222222222222222222222222222222222222222222222222222222222222222
222222222222222222222222222222222222222222222222222222222222222222222222
222222222222222222222222222222222222222222222222222222222222222222222222
222222222222222222222222222222222222222222222222222222222222222222222222
222222222222222222222222222222222222222222222222222222222222222222222222
222222222222222222222222222222222222222222222222222222222222222222222222
222222222222222222222222222222222222
# atoms in fragment 1/2:     3   753
 fragment masses (1/2) :       18.02     4521.84
CMA distance (Bohr)    :  16.552
constraining FC (au)   :  0.0500

           -------------------------------------------------
          |                 G F N 2 - x T B                 |
           -------------------------------------------------

        Reference                      10.1021/acs.jctc.8b01176
      * Hamiltonian:
        H0-scaling (s, p, d)           1.850000    2.230000    2.230000
        zeta-weighting                 0.500000
      * Dispersion:
        s8                             2.700000
        a1                             0.520000
        a2                             5.000000
        s9                             5.000000
      * Repulsion:
        kExp                           1.500000    1.000000
        rExp                           1.000000
      * Coulomb:
        alpha                          2.000000
        third order                    shell-resolved
        anisotropic                    true
        a3                             3.000000
        a5                             4.000000
        cn-shift                       1.200000
        cn-exp                         4.000000
        max-rad                        5.000000


          ...................................................
          :                      SETUP                      :
          :.................................................:
          :  # basis functions                1512          :
          :  # atomic orbitals                1512          :
          :  # shells                         1008          :
          :  # electrons                      2016          :
          :  max. iterations                   250          :
          :  Hamiltonian                  GFN2-xTB          :
          :  restarted?                      false          :
          :  GBSA solvation                  false          :
          :  PC potential                    false          :
          :  electronic temp.          300.0000000     K    :
          :  accuracy                    1.0000000          :
          :  -> integral cutoff          0.2500000E+02      :
          :  -> integral neglect         0.1000000E-07      :
          :  -> SCF convergence          0.1000000E-05 Eh   :
          :  -> wf. convergence          0.1000000E-03 e    :
          :  Broyden damping             0.4000000          :
          ...................................................

 iter      E             dE          RMSdq      gap      omega  full diag
   1  -1291.0392061 -0.129104E+04  0.407E+00    8.51       0.0  T
   2  -1291.1108626 -0.716565E-01  0.242E+00    8.34       1.0  T
   3  -1291.1418127 -0.309501E-01  0.209E-01    7.76       1.0  T
   4  -1291.1468617 -0.504899E-02  0.451E-02    7.95       1.0  T
   5  -1291.1469346 -0.728795E-04  0.307E-02    7.92       1.0  T
   6  -1291.1469740 -0.394555E-04  0.409E-03    7.94       1.0  T
   7  -1291.1469761 -0.212758E-05  0.775E-04    7.94       4.7  T
   8  -1291.1469762 -0.345447E-07  0.399E-04    7.94       9.1  T
   9  -1291.1469762 -0.154976E-07  0.718E-05    7.94      50.7  T

   *** convergence criteria satisfied after 9 iterations ***

         #    Occupation            Energy/Eh            Energy/eV
      -------------------------------------------------------------
         1        2.0000           -0.6977349             -18.9863
       ...           ...                  ...                  ...
      1002        2.0000           -0.4101341             -11.1603
      1003        2.0000           -0.4095086             -11.1433
      1004        2.0000           -0.4087672             -11.1231
      1005        2.0000           -0.4059447             -11.0463
      1006        2.0000           -0.4034400             -10.9782
      1007        2.0000           -0.4018863             -10.9359
      1008        2.0000           -0.4007329             -10.9045 (HOMO)
      1009                         -0.1090104              -2.9663 (LUMO)
      1010                         -0.0949575              -2.5839
      1011                         -0.0848114              -2.3078
      1012                         -0.0838145              -2.2807
      1013                         -0.0766907              -2.0869
       ...                                ...                  ...
      1512                          0.4276326              11.6365
      -------------------------------------------------------------
                  HL-Gap            0.2917224 Eh            7.9382 eV
             Fermi-level           -0.2548717 Eh           -6.9354 eV
 
 localization/xTB-IFF output generation
 averaging CT terms over            7  occ. levels
 averaging CT terms over            1  virt. levels
 dipole moment from electron density (au)
     X       Y       Z   
   9.1569  -0.2103  -2.7874  total (Debye):   24.335
cpu  time for init local    0.82 s
wall time for init local    0.43 s
 doing rotations ...
 initialization of trafo matrix to unity

 converged in     17 iterations, threshold :   0.99994662D-06
 doing transformations ...
 lmo centers(Z=2) and atoms on file <lmocent.coord>
 LMO Fii/eV  ncent    charge center   contributions...
    1 LP   *******   0.00   9.25707   7.27420  -3.36474  199O : 41.29  298O : 33.55  508O : 32.82   91O : 25.17  388O : 24.91  385O : 24.38   82O : 20.86  145O : 20.72  436O : 19.63   76O : 18.86  640O : 18.74  289O : 18.68
  172O : 18.54  535O : 18.13    7O : 17.96  325O : 17.94    4O : 17.88  733O : 17.38  670O : 16.64  451O : 16.53  700O : 16.35  256O : 16.11  487O : 15.57   46O : 15.31
  136O : 15.05  460O : 14.46  529O : 14.24  490O : 14.17  349O : 13.81  454O : 12.94  370O : 12.66  505O : 12.57  376O : 12.57  220O : 12.39  553O : 12.34  355O : 12.25
   55O : 12.00   25O : 11.92  697O : 11.81  169O : 11.51  667O : 11.38   22O : 11.00  433O : 10.58  283O : 10.51  568O : 10.51  202O : 10.51  619O : 10.24  238O : 10.03
  358O :  9.86  415O :  9.81  148O :  9.69  400O :  9.45  328O :  9.44   52O :  8.99  682O :  8.84  241O :  8.83   49O :  8.78  316O :  8.57  214O :  8.51  637O :  8.51
  664O :  8.47  592O :  8.40  439O :  8.39  247O :  8.34  361O :  8.33  208O :  8.32  685O :  8.30  112O :  8.29  463O :  8.07  295O :  8.01  379O :  7.99  577O :  7.96
  634O :  7.90  166O :  7.68  532O :  7.67  190O :  7.55  748O :  7.50  706O :  7.49   10O :  7.42  565O :  7.35  448O :  7.33  646O :  7.29  271O :  7.26  739O :  7.19
   16O :  7.18  196O :  7.14  226O :  7.08   73O :  6.99  679O :  6.93  442O :  6.77  493O :  6.70  754O :  6.69  106O :  6.64   85O :  6.55  544O :  6.50  301O :  6.43
  736O :  6.30  520O :  6.23  571O :  6.19  730O :  6.18  499O :  6.16  286O :  6.11  193O :  6.09   64O :  6.05  718O :  6.03   43O :  5.99  691O :  5.98  115O :  5.98
  100O :  5.96  625O :  5.96  253O :  5.89  319O :  5.88  751O :  5.84  343O :  5.82  418O :  5.81  307O :  5.79  676O :  5.78  547O :  5.72  457O :  5.69  175O :  5.60
  574O :  5.57  715O :  5.56  616O :  5.50  163O :  5.44   88O :  5.39   19O :  5.22  445O :  5.07  232O :  4.98  244O :  4.98  631O :  4.93  340O :  4.90  559O :  4.89
  556O :  4.80  481O :  4.78  721O :  4.78  643O :  4.77   61O :  4.74  130O :  4.71  151O :  4.69  427O :  4.62  472O :  4.57   79O :  4.45  658O :  4.36  511O :  4.33
  397O :  4.32  430O :  4.31   67O :  4.30  601O :  4.18  139O :  4.14  217O :  4.03  391O :  3.98  346O :  3.97  703O :  3.96   97O :  3.93  394O :  3.81   40O :  3.75
  514O :  3.71  331O :  3.71  382O :  3.66  406O :  3.65  233H :  3.60  595O :  3.56  364O :  3.52  412O :  3.49   13O :  3.47  187O :  3.40  688O :  3.38  265O :  3.37
  580O :  3.36  103O :  3.36  562O :  3.35  517O :  3.33  649O :  3.25  409O :  3.23  229O :  3.20  184O :  3.19  541O :  3.11   31O :  3.10  742O :  3.09  280O :  3.08
  466O :  3.08  550O :  3.07  142O :  3.06    1O :  3.00  502O :  2.90  178O :  2.83  655O :  2.76   28O :  2.69  686H :  2.67   37O :  2.58  334O :  2.57  421O :  2.51
  127O :  2.49  661O :  2.49  604O :  2.48  211O :  2.48  712O :  2.46  437H :  2.45  118O :  2.40  109O :  2.34  387H :  2.32  538O :  2.28  403O :  2.23  745O :  2.20
  469O :  2.14   86H :  2.09  367O :  2.06  438H :  2.06  133O :  2.03  475O :  2.02  509H :  1.99  583O :  1.98  684H :  1.96  610O :  1.96  702H :  1.94  181O :  1.89
  259O :  1.88  424O :  1.85  121O :  1.85  204H :  1.83   92H :  1.80  709O :  1.79  300H :  1.78  613O :  1.76  222H :  1.75  589O :  1.74  223O :  1.73  303H :  1.71
  496O :  1.67  598O :  1.59  277O :  1.54   90H :  1.51  227H :  1.49  304O :  1.49  299H :  1.47  297H :  1.45  262O :  1.44   42H :  1.44  268O :  1.43  157O :  1.43
  310O :  1.42  160O :  1.42  154O :  1.39  621H :  1.38  337O :  1.36  622O :  1.34  586O :  1.33  313O :  1.29  652O :  1.29  478O :  1.28  357H :  1.28  200H :  1.27
  506H :  1.26  327H :  1.25  205O :  1.23  607O :  1.22  698H :  1.21  694O :  1.20  124O :  1.17  680H :  1.16  635H :  1.13  372H :  1.12   94O :  1.12   51H :  1.10
  143H :  1.06  576H :  1.06  724O :  1.05  384H :  1.03  459H :  1.01  579H :  1.00  633H :  0.98  672H :  0.97  678H :  0.96  377H :  0.95  359H :  0.95   38H :  0.95
  518H :  0.95  242H :  0.95  326H :  0.94  666H :  0.93  320H :  0.93  168H :  0.93   58O :  0.91  734H :  0.90  195H :  0.90  753H :  0.90  707H :  0.90  363H :  0.89
  174H :  0.89  522H :  0.89  413H :  0.88   98H :  0.87   29H :  0.86  741H :  0.85  673O :  0.83  636H :  0.83  628O :  0.82  551H :  0.81  329H :  0.80  484O :  0.80
  274O :  0.80  322O :  0.79  554H :  0.78  515H :  0.77   44H :  0.74  671H :  0.72  311H :  0.72   70O :  0.71  626H :  0.71  630H :  0.71  198H :  0.70  561H :  0.70
  462H :  0.70    5H :  0.70    6H :  0.70  270H :  0.67  147H :  0.65  341H :  0.65  639H :  0.64  731H :  0.64  401H :  0.64   34O :  0.64  104H :  0.63  292O :  0.62
  650H :  0.62   87H :  0.60   80H :  0.60   66H :  0.60  618H :  0.59  356H :  0.58  189H :  0.57   17H :  0.57  488H :  0.56   89H :  0.55  449H :  0.55  749H :  0.55
  510H :  0.55    3H :  0.54  435H :  0.54  373O :  0.53  288H :  0.53   18H :  0.52   21H :  0.51  570H :  0.51  116H :  0.51  201H :  0.51   32H :  0.51   48H :  0.51
  473H :  0.51  393H :  0.50  543H :  0.49  318H :  0.48  627H :  0.48  176H :  0.48  717H :  0.48  524H :  0.47  144H :  0.47  638H :  0.47  381H :  0.47  471H :  0.47
  727O :  0.47  429H :  0.46  366H :  0.46  422H :  0.46  615H :  0.45  596H :  0.44  395H :  0.43   12H :  0.43  419H :  0.43  294H :  0.43  150H :  0.43  441H :  0.42
  624H :  0.41  249H :  0.41  279H :  0.41  402H :  0.40  264H :  0.40  668H :  0.40  536H :  0.40  352O :  0.39  221H :  0.39  119H :  0.39  290H :  0.39  591H :  0.39
  521H :  0.39  138H :  0.38  675H :  0.38  503H :  0.38  107H :  0.38  333H :  0.38  267H :  0.38  102H :  0.37  431H :  0.37  315H :  0.37  291H :  0.35  483H :  0.35
  248H :  0.35  608H :  0.34  497H :  0.34  218H :  0.33  669H :  0.33  257H :  0.32  654H :  0.32  213H :  0.32  108H :  0.32  485H :  0.32  210H :  0.32  156H :  0.32
  593H :  0.31  523O :  0.31  330H :  0.31  308H :  0.31   60H :  0.31   74H :  0.31  317H :  0.30  711H :  0.30  526O :  0.30  378H :  0.30   24H :  0.30  530H :  0.29
  332H :  0.29  141H :  0.29  537H :  0.29  507H :  0.29   96H :  0.29  750H :  0.29  362H :  0.28  125H :  0.28  235O :  0.28  443H :  0.27  344H :  0.27  453H :  0.27
  656H :  0.27  360H :  0.27   45H :  0.27  464H :  0.27  690H :  0.27  225H :  0.27  705H :  0.26  254H :  0.26  323H :  0.26  302H :  0.26   63H :  0.25  693H :  0.25
  564H :  0.24  365H :  0.24  188H :  0.24  215H :  0.24  182H :  0.24  237H :  0.24  588H :  0.23  287H :  0.23  692H :  0.23  368H :  0.23  719H :  0.22  545H :  0.21
  726H :  0.21  614H :  0.21  231H :  0.21  660H :  0.21  677H :  0.20  495H :  0.20  737H :  0.20  500H :  0.20  351H :  0.20   65H :  0.19  375H :  0.19  455H :  0.19
  245H :  0.19  425H :  0.19  408H :  0.19  662H :  0.19  743H :  0.18  494H :  0.18   30H :  0.18  258H :  0.18  321H :  0.18  206H :  0.17   77H :  0.17  597H :  0.17
  399H :  0.17  560H :  0.17  342H :  0.17  306H :  0.17   47H :  0.17  531H :  0.16  284H :  0.16  212H :  0.16  569H :  0.16  153H :  0.16  407H :  0.16   53H :  0.15
  687H :  0.15  338H :  0.15  177H :  0.15   69H :  0.15  446H :  0.14  527H :  0.14  444H :  0.14  380H :  0.14  336H :  0.14  644H :  0.14   27H :  0.14  122H :  0.14
  645H :  0.13  113H :  0.13  617H :  0.13  159H :  0.13   93H :  0.13  746H :  0.12  714H :  0.12  713H :  0.12  266H :  0.12  696H :  0.12  192H :  0.12  180H :  0.12
  185H :  0.12  383H :  0.12  599H :  0.12  345H :  0.12   54H :  0.12  273H :  0.11  260H :  0.11  623H :  0.11   39H :  0.11  555H :  0.10  695H :  0.10  480H :  0.10
  534H :  0.10   75H :  0.10  498H :  0.10   20H :  0.10  386H :  0.10   50H :  0.10  250O :  0.10  606H :  0.10  657H :  0.10  209H :  0.09  243H :  0.09   99H :  0.09
  404H :  0.09  602H :  0.09  161H :  0.09  479H :  0.09  539H :  0.08  416H :  0.08  738H :  0.08  755H :  0.08   23H :  0.08  123H :  0.08  129H :  0.08  155H :  0.08
  278H :  0.08  665H :  0.08  312H :  0.08  173H :  0.08  557H :  0.08  389H :  0.07  197H :  0.07  611H :  0.07  398H :  0.07
    2 LP   *******   0.00 -15.55770 -18.24943  22.55478  199O : 36.76  298O : 36.40  508O : 31.26   91O : 23.99  388O : 23.74  385O : 23.24   82O : 19.89  145O : 19.75  436O : 18.71   76O : 17.97  640O : 17.86  289O : 17.86
  172O : 17.67  535O : 17.28    7O : 17.12  325O : 17.09    4O : 17.04  733O : 16.57  670O : 15.86  451O : 15.76  700O : 15.58  256O : 15.36  487O : 14.85   46O : 14.59
  136O : 14.34  460O : 13.78  529O : 13.59  490O : 13.50  349O : 13.16  454O : 12.33  370O : 12.07  505O : 11.98  376O : 11.98  220O : 11.84  553O : 11.76  355O : 11.68
   55O : 11.44   25O : 11.36  697O : 11.27  169O : 10.97  667O : 10.85   22O : 10.48  433O : 10.08  283O : 10.02  568O : 10.02  202O : 10.01  619O :  9.78  238O :  9.56
  358O :  9.37  415O :  9.32  148O :  9.23  400O :  9.00  328O :  9.00   52O :  8.57  682O :  8.42  241O :  8.41   49O :  8.37  316O :  8.16  637O :  8.11  214O :  8.11
  664O :  8.08  112O :  8.03  592O :  8.01  439O :  8.00  247O :  7.95  361O :  7.94  208O :  7.93  685O :  7.91  463O :  7.69  295O :  7.62  379O :  7.62  577O :  7.58
  634O :  7.53  166O :  7.32  532O :  7.31   10O :  7.20  190O :  7.18  748O :  7.14  706O :  7.14  565O :  7.01  448O :  6.98  646O :  6.94  271O :  6.91  739O :  6.86
   16O :  6.85  196O :  6.81  226O :  6.75   73O :  6.66  679O :  6.61  442O :  6.45  493O :  6.39  754O :  6.38  106O :  6.32   85O :  6.24  544O :  6.19  301O :  6.13
  736O :  6.01  520O :  5.93  571O :  5.90  730O :  5.89  499O :  5.87  286O :  5.83  193O :  5.80   64O :  5.77  718O :  5.74   43O :  5.73  691O :  5.70  115O :  5.69
  100O :  5.68  625O :  5.68  253O :  5.63  319O :  5.60  343O :  5.54  418O :  5.54  307O :  5.52  676O :  5.45  547O :  5.45  457O :  5.42  751O :  5.34  175O :  5.33
  574O :  5.31  715O :  5.30  616O :  5.25  163O :  5.18   88O :  5.18   19O :  5.00  445O :  4.83  232O :  4.80  244O :  4.74  631O :  4.69  340O :  4.67  559O :  4.66
  556O :  4.57  721O :  4.56  481O :  4.56  643O :  4.54   61O :  4.52  130O :  4.49  151O :  4.47  427O :  4.40  472O :  4.36   79O :  4.24  658O :  4.16  430O :  4.13
  511O :  4.12  397O :  4.12   67O :  4.10  217O :  4.09  601O :  3.99  139O :  3.95  391O :  3.79  346O :  3.78  703O :  3.78   97O :  3.75  394O :  3.63   40O :  3.56
  514O :  3.54  331O :  3.54  233H :  3.51  382O :  3.49  406O :  3.48  595O :  3.39  364O :  3.36  412O :  3.33   13O :  3.31  187O :  3.24  688O :  3.22  265O :  3.21
  580O :  3.20  103O :  3.20  562O :  3.19  517O :  3.17  649O :  3.10  409O :  3.08  466O :  3.04  184O :  3.04  229O :  3.02  541O :  2.97   31O :  2.95  742O :  2.94
  280O :  2.94  550O :  2.92  142O :  2.91    1O :  2.86  502O :  2.77  178O :  2.70  655O :  2.63   28O :  2.59  686H :  2.55   37O :  2.46  334O :  2.45  661O :  2.43
  421O :  2.39  127O :  2.37  604O :  2.37  211O :  2.36  712O :  2.34  437H :  2.34  118O :  2.28  109O :  2.23  387H :  2.21  538O :  2.17  403O :  2.12  745O :  2.10
  469O :  2.04   86H :  1.99  367O :  1.98  438H :  1.96  133O :  1.94  475O :  1.92  509H :  1.90  583O :  1.88  684H :  1.87  610O :  1.86  702H :  1.85  181O :  1.80
  259O :  1.79  424O :  1.77  121O :  1.76  204H :  1.74   92H :  1.72  709O :  1.71  613O :  1.67  222H :  1.66  589O :  1.66  223O :  1.65  303H :  1.63  496O :  1.59
  300H :  1.56  598O :  1.51  277O :  1.47   90H :  1.46  227H :  1.42  304O :  1.42  297H :  1.38  262O :  1.38   42H :  1.37  268O :  1.36  310O :  1.36  160O :  1.35
  157O :  1.35  200H :  1.34  154O :  1.32  621H :  1.32  337O :  1.30  299H :  1.29  586O :  1.28  622O :  1.27  313O :  1.23  652O :  1.23  478O :  1.22  357H :  1.22
  506H :  1.20  327H :  1.20  205O :  1.18  607O :  1.16  698H :  1.16  124O :  1.11  680H :  1.10  635H :  1.08  372H :  1.07   94O :  1.07  694O :  1.05   51H :  1.04
  143H :  1.01  576H :  1.01  724O :  1.00  384H :  0.98  459H :  0.96  579H :  0.96  633H :  0.94  672H :  0.93  359H :  0.91  678H :  0.91  377H :  0.91   38H :  0.91
  518H :  0.90  242H :  0.90  326H :  0.89  666H :  0.89  320H :  0.89  168H :  0.88   58O :  0.87  734H :  0.86  195H :  0.86  707H :  0.85   29H :  0.85  363H :  0.85
  174H :  0.85  753H :  0.85  522H :  0.85  413H :  0.83   98H :  0.82  741H :  0.81  673O :  0.79  636H :  0.79  628O :  0.79  551H :  0.77  329H :  0.77  484O :  0.76
  274O :  0.76  322O :  0.76  554H :  0.75  515H :  0.74   44H :  0.70  671H :  0.69  311H :  0.68   70O :  0.68  626H :  0.68  630H :  0.68  198H :  0.67  561H :  0.67
  462H :  0.67    5H :  0.67    6H :  0.66  270H :  0.64  147H :  0.62  341H :  0.62  639H :  0.61  731H :  0.61  401H :  0.61  104H :  0.60  650H :  0.59  292O :  0.59
   87H :  0.57   80H :  0.57   66H :  0.57  618H :  0.57  201H :  0.57   34O :  0.56  356H :  0.56  189H :  0.55   17H :  0.54  488H :  0.54   89H :  0.53  449H :  0.53
  749H :  0.52  510H :  0.52    3H :  0.52  435H :  0.52   21H :  0.50  373O :  0.50  288H :  0.50   18H :  0.49  570H :  0.49  116H :  0.49   48H :  0.48  473H :  0.48
   32H :  0.48  393H :  0.47  543H :  0.47  318H :  0.46  627H :  0.46  176H :  0.45  717H :  0.45  638H :  0.45  524H :  0.45  144H :  0.45  381H :  0.45  471H :  0.45
  727O :  0.45  429H :  0.44  366H :  0.44  422H :  0.43  615H :  0.43  596H :  0.42  395H :  0.41   12H :  0.41  419H :  0.41  294H :  0.41  150H :  0.41  441H :  0.40
  624H :  0.39  249H :  0.39  279H :  0.39  402H :  0.38  264H :  0.38  668H :  0.38  536H :  0.38  352O :  0.38  119H :  0.37  221H :  0.37  591H :  0.37  521H :  0.37
  290H :  0.37  431H :  0.37  138H :  0.37  675H :  0.36  503H :  0.36  107H :  0.36  333H :  0.36  267H :  0.36  102H :  0.36  315H :  0.35  291H :  0.34  483H :  0.33
  248H :  0.33  218H :  0.33  608H :  0.33  497H :  0.33  669H :  0.31  257H :  0.31  654H :  0.31  213H :  0.31  108H :  0.31  485H :  0.30  210H :  0.30  156H :  0.30
  593H :  0.30  523O :  0.30  330H :  0.30  308H :  0.30   60H :  0.30   74H :  0.29  317H :  0.29  711H :  0.29  526O :  0.29  378H :  0.28   24H :  0.28  530H :  0.28
  332H :  0.28  141H :  0.28  537H :  0.27  507H :  0.27   96H :  0.27  750H :  0.27  125H :  0.27  362H :  0.27  235O :  0.26  443H :  0.26  344H :  0.26  453H :  0.26
  656H :  0.26  360H :  0.26  464H :  0.25  690H :  0.25  225H :  0.25  705H :  0.25  254H :  0.25  323H :  0.25  302H :  0.24   63H :  0.24   45H :  0.24  693H :  0.24
  564H :  0.23  365H :  0.23  188H :  0.23  215H :  0.23  237H :  0.23  182H :  0.23  588H :  0.22  287H :  0.22  692H :  0.22  368H :  0.22  719H :  0.21  677H :  0.21
  545H :  0.20  726H :  0.20  614H :  0.20  231H :  0.20  660H :  0.20  495H :  0.19  737H :  0.19  500H :  0.19  662H :  0.19  351H :  0.19   65H :  0.19  375H :  0.18
  455H :  0.18  425H :  0.18  245H :  0.18  408H :  0.18   30H :  0.18  743H :  0.18  494H :  0.18  258H :  0.17  321H :  0.17  206H :  0.17   77H :  0.16  399H :  0.16
  597H :  0.16  560H :  0.16  342H :  0.16  306H :  0.16   47H :  0.16  531H :  0.16  284H :  0.15  212H :  0.15  569H :  0.15  153H :  0.15  407H :  0.15   53H :  0.15
  687H :  0.15  338H :  0.15  177H :  0.14   69H :  0.14  446H :  0.14  527H :  0.14  444H :  0.14  380H :  0.13  336H :  0.13  644H :  0.13   27H :  0.13  122H :  0.13
  645H :  0.13  113H :  0.12  617H :  0.12   93H :  0.12  696H :  0.12  746H :  0.12  714H :  0.12  713H :  0.12  266H :  0.12  192H :  0.12  180H :  0.12  159H :  0.12
  185H :  0.12  383H :  0.12  599H :  0.11  345H :  0.11   54H :  0.11  273H :  0.10  260H :  0.10  623H :  0.10   39H :  0.10  695H :  0.10  555H :  0.10  480H :  0.10
  534H :  0.10   75H :  0.10  498H :  0.10  386H :  0.10   50H :  0.09  250O :  0.09   20H :  0.09  606H :  0.09  657H :  0.09  209H :  0.09  243H :  0.09   99H :  0.08
  404H :  0.08  602H :  0.08  161H :  0.08  479H :  0.08  539H :  0.08  738H :  0.08  755H :  0.08  416H :  0.08   23H :  0.08  123H :  0.08  129H :  0.08  278H :  0.08
  155H :  0.08  665H :  0.08  312H :  0.07  173H :  0.07  557H :  0.07  389H :  0.07
    3 LP   *******   0.00 -42.06616  13.62842  46.53904  199O : 32.21  508O : 29.90  298O : 28.01   91O : 21.02  388O : 20.80  385O : 20.34   82O : 17.42  145O : 17.31  436O : 16.39   76O : 15.76  640O : 15.65  289O : 15.65
  172O : 15.48  535O : 15.14    7O : 15.00  325O : 14.98    4O : 14.93  733O : 14.52  670O : 13.90  451O : 13.80  700O : 13.66  256O : 13.46  487O : 13.01   46O : 12.79
  136O : 12.57  460O : 12.08  529O : 11.89  490O : 11.83  349O : 11.54  454O : 10.80  370O : 10.57  505O : 10.50  376O : 10.50  220O : 10.35  553O : 10.31  355O : 10.23
   55O : 10.02   25O :  9.96  697O :  9.87  169O :  9.61  667O :  9.50   22O :  9.19  433O :  8.84  283O :  8.78  568O :  8.78  202O :  8.77  619O :  8.55  238O :  8.38
  358O :  8.21  415O :  8.17  148O :  8.09  400O :  7.89  328O :  7.89   52O :  7.51  682O :  7.38  241O :  7.37   49O :  7.33  637O :  7.11  214O :  7.11  664O :  7.08
  592O :  7.02  439O :  7.01  247O :  6.96  361O :  6.95  208O :  6.95  685O :  6.93  112O :  6.92  463O :  6.74  316O :  6.71  295O :  6.68  379O :  6.68  577O :  6.65
  634O :  6.60  166O :  6.42  532O :  6.41  190O :  6.31  706O :  6.25  748O :  6.25   10O :  6.19  565O :  6.14  448O :  6.12  646O :  6.08  271O :  6.06  739O :  6.01
   16O :  6.00  196O :  5.96  226O :  5.91   73O :  5.84  679O :  5.80  442O :  5.66  493O :  5.60  754O :  5.59  106O :  5.54   85O :  5.47  544O :  5.43  301O :  5.37
  736O :  5.26  520O :  5.20  571O :  5.17  730O :  5.16  499O :  5.14  286O :  5.11  193O :  5.09   64O :  5.05  718O :  5.03   43O :  5.02  691O :  4.99  115O :  4.99
  100O :  4.98  625O :  4.97  253O :  4.93  319O :  4.91  751O :  4.88  343O :  4.86  418O :  4.85  307O :  4.84  676O :  4.78  547O :  4.78  457O :  4.75  175O :  4.67
  574O :  4.65  715O :  4.65  616O :  4.60   88O :  4.55  163O :  4.54   19O :  4.36  445O :  4.23  232O :  4.16  244O :  4.16  631O :  4.11  340O :  4.09  559O :  4.08
  556O :  4.01  481O :  3.99  721O :  3.99  643O :  3.98   61O :  3.96  130O :  3.94  151O :  3.92  427O :  3.86  472O :  3.82   79O :  3.72  658O :  3.64  511O :  3.61
  397O :  3.61  430O :  3.60   67O :  3.59  217O :  3.58  601O :  3.49  139O :  3.46  391O :  3.32  346O :  3.32  703O :  3.31   97O :  3.28  394O :  3.18   40O :  3.13
  514O :  3.10  331O :  3.10  382O :  3.06  406O :  3.05  233H :  3.00  595O :  2.97  364O :  2.94  412O :  2.92   13O :  2.89  187O :  2.84  688O :  2.82  265O :  2.81
  580O :  2.81  103O :  2.80  562O :  2.80  517O :  2.78  649O :  2.71  409O :  2.70  466O :  2.67  184O :  2.67  541O :  2.60   31O :  2.59  742O :  2.58  229O :  2.58
  280O :  2.58  550O :  2.56  142O :  2.55    1O :  2.50  502O :  2.42  178O :  2.37  655O :  2.30   28O :  2.24  686H :  2.23   37O :  2.16  334O :  2.15  661O :  2.13
  421O :  2.09  127O :  2.08  604O :  2.07  211O :  2.07  712O :  2.05  437H :  2.05  118O :  2.00  109O :  1.95  387H :  1.94  538O :  1.90  403O :  1.86  745O :  1.84
  469O :  1.79   86H :  1.75  367O :  1.72  438H :  1.72  133O :  1.70  475O :  1.69  583O :  1.65  684H :  1.64  610O :  1.63  702H :  1.62  181O :  1.58  259O :  1.57
  424O :  1.55  121O :  1.54  204H :  1.53  509H :  1.52   92H :  1.51  709O :  1.50  300H :  1.48  613O :  1.47  222H :  1.46  589O :  1.45  223O :  1.45  303H :  1.43
  496O :  1.39  277O :  1.28   90H :  1.28  598O :  1.28  268O :  1.27  227H :  1.25  304O :  1.25  299H :  1.23  297H :  1.21  262O :  1.21   42H :  1.20  310O :  1.19
  157O :  1.18  160O :  1.18  200H :  1.18  154O :  1.16  621H :  1.16  337O :  1.14  622O :  1.12  586O :  1.11  313O :  1.08  652O :  1.08  478O :  1.07  357H :  1.07
  506H :  1.05  327H :  1.05  205O :  1.03  607O :  1.02  698H :  1.02  694O :  1.01  680H :  0.98  124O :  0.98  635H :  0.95  372H :  0.94   94O :  0.94   51H :  0.91
  143H :  0.88  576H :  0.88  724O :  0.88  384H :  0.86  459H :  0.84  579H :  0.84  633H :  0.82  672H :  0.81  359H :  0.80  678H :  0.80  377H :  0.80   38H :  0.79
  518H :  0.79  242H :  0.79  326H :  0.78  666H :  0.78  320H :  0.78  168H :  0.77   58O :  0.76  734H :  0.75  195H :  0.75  707H :  0.75  753H :  0.75  363H :  0.75
  174H :  0.75  522H :  0.74  413H :  0.73   98H :  0.72   29H :  0.71  741H :  0.71  673O :  0.69  636H :  0.69  628O :  0.69  551H :  0.68  329H :  0.67  484O :  0.67
  274O :  0.67  322O :  0.66  554H :  0.66  515H :  0.65   44H :  0.62  671H :  0.60  311H :  0.60   70O :  0.60  626H :  0.60  630H :  0.59  198H :  0.59  561H :  0.58
  462H :  0.58    5H :  0.58    6H :  0.58  270H :  0.55  147H :  0.55  341H :  0.55  639H :  0.54  731H :  0.53  401H :  0.53   34O :  0.53  104H :  0.52  292O :  0.52
  650H :  0.52   87H :  0.50   80H :  0.50   66H :  0.50  618H :  0.50  201H :  0.50  356H :  0.49  189H :  0.48   17H :  0.48  488H :  0.47   89H :  0.46  449H :  0.46
  749H :  0.46    3H :  0.45  435H :  0.45  373O :  0.44  288H :  0.44   18H :  0.43   21H :  0.43  570H :  0.43  116H :  0.43   32H :  0.43   48H :  0.42  473H :  0.42
  393H :  0.42  543H :  0.41  627H :  0.40  176H :  0.40  717H :  0.40  638H :  0.39  144H :  0.39  524H :  0.39  381H :  0.39  471H :  0.39  727O :  0.39  429H :  0.39
  510H :  0.39  366H :  0.39  422H :  0.38  615H :  0.37  596H :  0.37  395H :  0.36   12H :  0.36  419H :  0.36  294H :  0.36  150H :  0.36  441H :  0.35  624H :  0.35
  249H :  0.34  279H :  0.34  402H :  0.33  264H :  0.33  668H :  0.33  536H :  0.33  352O :  0.33  221H :  0.33  119H :  0.32  591H :  0.32  521H :  0.32  290H :  0.32
  138H :  0.32  675H :  0.32  503H :  0.32  107H :  0.32  333H :  0.31  267H :  0.31  102H :  0.31  431H :  0.31  315H :  0.31  291H :  0.30  483H :  0.29  248H :  0.29
  218H :  0.29  608H :  0.29  497H :  0.29  318H :  0.28  669H :  0.27  257H :  0.27  654H :  0.27  213H :  0.27  108H :  0.27  485H :  0.27  210H :  0.26  156H :  0.26
  593H :  0.26  523O :  0.26  330H :  0.26  308H :  0.26   60H :  0.26   74H :  0.26  317H :  0.26  711H :  0.25  526O :  0.25  378H :  0.25   24H :  0.25  530H :  0.24
  332H :  0.24  141H :  0.24  537H :  0.24  507H :  0.24   96H :  0.24  750H :  0.24  125H :  0.24  362H :  0.23  235O :  0.23  443H :  0.23  344H :  0.23  656H :  0.23
  453H :  0.23  360H :  0.22  464H :  0.22  690H :  0.22  225H :  0.22  705H :  0.22  254H :  0.22  323H :  0.22  302H :  0.21   63H :  0.21   45H :  0.21  693H :  0.21
  564H :  0.20  365H :  0.20  188H :  0.20  215H :  0.20  182H :  0.20  237H :  0.20  588H :  0.19  287H :  0.19  692H :  0.19  368H :  0.19  719H :  0.19  677H :  0.18
  545H :  0.18  726H :  0.18  614H :  0.18  660H :  0.17  231H :  0.17  495H :  0.17  737H :  0.17  500H :  0.17  662H :  0.17  351H :  0.17   65H :  0.16  375H :  0.16
  455H :  0.16  425H :  0.16  245H :  0.16  408H :  0.16  743H :  0.15  494H :  0.15   30H :  0.15  258H :  0.15  321H :  0.15  206H :  0.15  597H :  0.14   77H :  0.14
  399H :  0.14  560H :  0.14  342H :  0.14  306H :  0.14   47H :  0.14  531H :  0.14  284H :  0.14  212H :  0.13  569H :  0.13  153H :  0.13  407H :  0.13   53H :  0.13
  687H :  0.13  338H :  0.13  177H :  0.13   69H :  0.12  446H :  0.12  527H :  0.12  444H :  0.12  380H :  0.12  336H :  0.12  644H :  0.12   27H :  0.11  122H :  0.11
  113H :  0.11  645H :  0.11  617H :  0.11   93H :  0.11  746H :  0.10  714H :  0.10  713H :  0.10  266H :  0.10  696H :  0.10  192H :  0.10  180H :  0.10  159H :  0.10
  185H :  0.10  383H :  0.10  345H :  0.10   54H :  0.10  599H :  0.10  273H :  0.09  260H :  0.09  623H :  0.09   39H :  0.09  555H :  0.09  695H :  0.09  480H :  0.09
  534H :  0.09   75H :  0.08  498H :  0.08   20H :  0.08  386H :  0.08   50H :  0.08  250O :  0.08  606H :  0.08  657H :  0.08  209H :  0.08  243H :  0.07  404H :  0.07
   99H :  0.07  602H :  0.07  161H :  0.07  479H :  0.07  539H :  0.07  738H :  0.07  755H :  0.07  416H :  0.07
    4 LP   *******   0.00 -70.67077 -36.69554 -21.62099  199O : 25.09  298O : 21.82  508O : 21.34   91O : 19.51  388O : 16.20  385O : 15.86   82O : 13.57  145O : 13.48  436O : 12.77   76O : 12.27  640O : 12.19  289O : 12.19
  172O : 12.06  535O : 11.79    7O : 11.68  325O : 11.67    4O : 11.63  733O : 11.31  670O : 10.83  451O : 10.75  700O : 10.64  256O : 10.48  487O : 10.13   46O :  9.96
  136O :  9.79  460O :  9.41  529O :  9.26  490O :  9.21  349O :  8.97  454O :  8.41  370O :  8.23  505O :  8.18  376O :  8.18  220O :  8.06  553O :  8.03  355O :  7.97
   55O :  7.81   25O :  7.75  697O :  7.69  169O :  7.48  667O :  7.40   22O :  7.16  433O :  6.88  283O :  6.84  568O :  6.84  202O :  6.83  619O :  6.66  238O :  6.52
  358O :  6.39  415O :  6.36  148O :  6.30  400O :  6.14  328O :  6.14   52O :  5.84  682O :  5.75  241O :  5.74   49O :  5.71  316O :  5.57  637O :  5.54  214O :  5.54
  664O :  5.49  592O :  5.47  439O :  5.46  247O :  5.42  361O :  5.41  208O :  5.41  685O :  5.40  112O :  5.39  463O :  5.25  295O :  5.21  379O :  5.20  577O :  5.18
  634O :  5.14  166O :  5.00  532O :  4.99  190O :  4.91  706O :  4.87  748O :  4.87   10O :  4.82  565O :  4.78  448O :  4.77  646O :  4.74  271O :  4.72  739O :  4.68
   16O :  4.67  196O :  4.65  226O :  4.60   73O :  4.55  679O :  4.51  442O :  4.40  493O :  4.36  754O :  4.36  106O :  4.31   85O :  4.27  544O :  4.22  301O :  4.18
  736O :  4.10  520O :  4.05  571O :  4.03  730O :  4.02  499O :  4.00  286O :  3.97  193O :  3.96   64O :  3.94  718O :  3.92   43O :  3.91  691O :  3.89  115O :  3.89
  100O :  3.88  625O :  3.87  253O :  3.84  319O :  3.82  751O :  3.80  343O :  3.78  307O :  3.77  418O :  3.76  676O :  3.72  547O :  3.72  457O :  3.70  175O :  3.64
  574O :  3.62  715O :  3.62  616O :  3.58   88O :  3.55  163O :  3.54   19O :  3.39  445O :  3.30  232O :  3.24  631O :  3.20  244O :  3.18  559O :  3.16  556O :  3.12
  340O :  3.11  481O :  3.11  721O :  3.11  643O :  3.10   61O :  3.08  130O :  3.07  151O :  3.05  427O :  3.01  472O :  2.98   79O :  2.89  658O :  2.84  397O :  2.81
  511O :  2.81  430O :  2.80   67O :  2.80  217O :  2.79  601O :  2.72  139O :  2.69  391O :  2.59  346O :  2.58  703O :  2.58   97O :  2.56  394O :  2.48   40O :  2.44
  514O :  2.41  331O :  2.41  382O :  2.38  406O :  2.38  233H :  2.34  595O :  2.31  364O :  2.29  412O :  2.27   13O :  2.25  187O :  2.21  688O :  2.20  265O :  2.19
  580O :  2.19  103O :  2.18  562O :  2.18  517O :  2.16  649O :  2.13  409O :  2.10  229O :  2.08  466O :  2.08  184O :  2.08  541O :  2.02   31O :  2.02  742O :  2.01
  550O :  2.00  142O :  1.99  280O :  1.99    1O :  1.95  502O :  1.89  178O :  1.84  655O :  1.79   28O :  1.75  686H :  1.74   37O :  1.68  334O :  1.66  661O :  1.66
  421O :  1.63  604O :  1.61  211O :  1.61  712O :  1.60  437H :  1.59  118O :  1.56  127O :  1.54  109O :  1.52  387H :  1.51  538O :  1.48  403O :  1.45  745O :  1.43
  469O :  1.39   86H :  1.36  367O :  1.34  438H :  1.34  133O :  1.32  475O :  1.31  509H :  1.29  583O :  1.29  684H :  1.28  610O :  1.27  702H :  1.26  181O :  1.23
  259O :  1.22  424O :  1.21  121O :  1.20  204H :  1.19  709O :  1.17  300H :  1.16  613O :  1.14  222H :  1.14  589O :  1.13  223O :  1.13  303H :  1.11   92H :  1.09
  496O :  1.08  598O :  1.03  277O :  1.00   90H :  1.00  227H :  0.97  304O :  0.97  299H :  0.96  297H :  0.94  262O :  0.94   42H :  0.94  268O :  0.93  310O :  0.93
  157O :  0.92  160O :  0.92  200H :  0.92  154O :  0.90  621H :  0.90  337O :  0.88  622O :  0.87  586O :  0.87  313O :  0.84  652O :  0.84  478O :  0.83  357H :  0.83
  506H :  0.82  327H :  0.82  205O :  0.80  607O :  0.79  698H :  0.79  694O :  0.78  124O :  0.76  680H :  0.75  635H :  0.74  372H :  0.73   94O :  0.73   51H :  0.71
  143H :  0.69  576H :  0.69  724O :  0.68  384H :  0.67  459H :  0.66  579H :  0.65  633H :  0.64  672H :  0.63  359H :  0.62  678H :  0.62  377H :  0.62   38H :  0.62
  518H :  0.62  242H :  0.62  326H :  0.61  666H :  0.61  320H :  0.61  168H :  0.60   58O :  0.59  734H :  0.59  195H :  0.58  707H :  0.58  753H :  0.58  363H :  0.58
  174H :  0.58  522H :  0.58  413H :  0.57   98H :  0.56   29H :  0.56  741H :  0.56  673O :  0.54  636H :  0.54  628O :  0.54  551H :  0.53  329H :  0.52  484O :  0.52
  274O :  0.52  322O :  0.52  554H :  0.51  515H :  0.50   44H :  0.48  671H :  0.47  311H :  0.47   70O :  0.47  626H :  0.46  561H :  0.46  630H :  0.46  198H :  0.46
  462H :  0.45    5H :  0.45    6H :  0.45  270H :  0.44  147H :  0.43  341H :  0.42  639H :  0.42  731H :  0.42  401H :  0.42   34O :  0.41  104H :  0.41  650H :  0.41
  292O :  0.40   87H :  0.39   80H :  0.39   66H :  0.39  618H :  0.39  201H :  0.39  356H :  0.38  189H :  0.37   17H :  0.37  488H :  0.37   89H :  0.36  449H :  0.36
  749H :  0.36  510H :  0.36    3H :  0.35  435H :  0.35  373O :  0.34  288H :  0.34   18H :  0.34   21H :  0.33  570H :  0.33  116H :  0.33   32H :  0.33   48H :  0.33
  473H :  0.33  393H :  0.32  543H :  0.32  318H :  0.31  176H :  0.31  627H :  0.31  717H :  0.31  638H :  0.31  524H :  0.31  144H :  0.31  381H :  0.31  471H :  0.30
  727O :  0.30  429H :  0.30  366H :  0.30  422H :  0.30  615H :  0.29  596H :  0.29  395H :  0.28   12H :  0.28  419H :  0.28  294H :  0.28  150H :  0.28  441H :  0.27
  624H :  0.27  249H :  0.27  279H :  0.27  402H :  0.26  264H :  0.26  668H :  0.26  536H :  0.26  352O :  0.26  221H :  0.25  119H :  0.25  591H :  0.25  521H :  0.25
  290H :  0.25  138H :  0.25  675H :  0.25  503H :  0.25  107H :  0.25  333H :  0.25  267H :  0.25  102H :  0.24  431H :  0.24  315H :  0.24  291H :  0.23  483H :  0.23
  248H :  0.22  218H :  0.22  608H :  0.22  497H :  0.22  669H :  0.21  257H :  0.21  654H :  0.21  213H :  0.21  108H :  0.21  485H :  0.21  210H :  0.21  156H :  0.21
  560H :  0.20  593H :  0.20  523O :  0.20  330H :  0.20  308H :  0.20   60H :  0.20   74H :  0.20  317H :  0.20  711H :  0.20  526O :  0.20  378H :  0.19   24H :  0.19
  530H :  0.19  332H :  0.19  141H :  0.19  537H :  0.19  507H :  0.19   96H :  0.19  750H :  0.19  125H :  0.18  362H :  0.18  235O :  0.18  443H :  0.18  344H :  0.18
  453H :  0.18  656H :  0.18  360H :  0.17  464H :  0.17  690H :  0.17  225H :  0.17  705H :  0.17  254H :  0.17  323H :  0.17  302H :  0.17   63H :  0.16   45H :  0.16
  693H :  0.16  564H :  0.16  365H :  0.16  188H :  0.16  215H :  0.16  182H :  0.15  237H :  0.15  588H :  0.15  287H :  0.15  692H :  0.15  368H :  0.15  719H :  0.15
  677H :  0.14  545H :  0.14  726H :  0.14  614H :  0.14  231H :  0.13  660H :  0.13  495H :  0.13  737H :  0.13  500H :  0.13  662H :  0.13  351H :  0.13   65H :  0.13
  375H :  0.13  455H :  0.13  425H :  0.12  408H :  0.12  743H :  0.12  494H :  0.12   30H :  0.12  245H :  0.12  258H :  0.12  321H :  0.12  342H :  0.11  206H :  0.11
  597H :  0.11   77H :  0.11  399H :  0.11  306H :  0.11   47H :  0.11  531H :  0.11  284H :  0.11  212H :  0.10  569H :  0.10  153H :  0.10  407H :  0.10  687H :  0.10
  338H :  0.10   53H :  0.10  177H :  0.10   69H :  0.09  446H :  0.09  527H :  0.09  444H :  0.09  380H :  0.09  336H :  0.09  644H :  0.09   27H :  0.09  122H :  0.09
  113H :  0.09  645H :  0.09  617H :  0.08  746H :  0.08  714H :  0.08  713H :  0.08  266H :  0.08  696H :  0.08  192H :  0.08  180H :  0.08  159H :  0.08  185H :  0.08
  383H :  0.08  345H :  0.08  599H :  0.08   54H :  0.08
    5 LP   *******   0.00 -19.47778  13.35313  25.56567  199O : 23.56  298O : 20.50  508O : 20.05  145O : 15.48   91O : 15.38  388O : 15.26  385O : 14.90   82O : 12.74  436O : 11.99   76O : 11.52  289O : 11.48  640O : 11.45
  172O : 11.33  535O : 11.08    7O : 10.97  325O : 10.96    4O : 10.92  733O : 10.62  670O : 10.17  451O : 10.10  700O :  9.99  256O :  9.85  487O :  9.51   46O :  9.36
  136O :  9.19  460O :  8.83  529O :  8.70  490O :  8.65  349O :  8.44  454O :  7.90  370O :  7.73  505O :  7.68  376O :  7.68  220O :  7.57  553O :  7.54  355O :  7.48
   55O :  7.33   25O :  7.28  697O :  7.22  169O :  7.03  667O :  6.95   22O :  6.72  433O :  6.46  283O :  6.42  568O :  6.42  202O :  6.42  619O :  6.26  238O :  6.13
  358O :  6.00  415O :  5.98  148O :  5.92  400O :  5.77  328O :  5.77   52O :  5.49  241O :  5.39  682O :  5.39   49O :  5.36  316O :  5.23  637O :  5.20  214O :  5.20
  664O :  5.18  439O :  5.13  247O :  5.09  361O :  5.09  208O :  5.08  685O :  5.07  112O :  5.06  592O :  4.98  463O :  4.93  295O :  4.89  379O :  4.88  577O :  4.86
  634O :  4.83  166O :  4.69  532O :  4.69  190O :  4.61  706O :  4.57  748O :  4.57   10O :  4.54  565O :  4.49  448O :  4.48  646O :  4.45  271O :  4.43  739O :  4.40
   16O :  4.39  196O :  4.36  226O :  4.32   73O :  4.27  679O :  4.24  442O :  4.14  493O :  4.09  754O :  4.09  106O :  4.05   85O :  4.00  544O :  3.97  301O :  3.93
  736O :  3.85  520O :  3.80  571O :  3.78  730O :  3.78  499O :  3.76  286O :  3.73  193O :  3.72   64O :  3.70  718O :  3.68   43O :  3.68  691O :  3.65  115O :  3.65
  100O :  3.64  625O :  3.64  253O :  3.61  319O :  3.60  751O :  3.57  343O :  3.55  418O :  3.55  307O :  3.54  676O :  3.50  547O :  3.50  457O :  3.48  175O :  3.42
  574O :  3.40  616O :  3.36  715O :  3.34   88O :  3.33  163O :  3.32   19O :  3.19  445O :  3.10  232O :  3.04  244O :  3.04  631O :  3.01  340O :  2.99  559O :  2.99
  556O :  2.93  481O :  2.92  721O :  2.92  643O :  2.91   61O :  2.90  130O :  2.88  151O :  2.87  427O :  2.82  472O :  2.79   79O :  2.72  658O :  2.67  511O :  2.64
  397O :  2.64  430O :  2.63   67O :  2.63  217O :  2.62  601O :  2.56  139O :  2.53   40O :  2.45  391O :  2.43  346O :  2.43  703O :  2.42   97O :  2.40  394O :  2.33
  514O :  2.27  331O :  2.27  382O :  2.24  406O :  2.23  233H :  2.20  595O :  2.17  364O :  2.15  412O :  2.13   13O :  2.12  187O :  2.08  688O :  2.06  265O :  2.06
  580O :  2.05  103O :  2.05  562O :  2.05  517O :  2.03  649O :  1.99  409O :  1.97  229O :  1.95  466O :  1.95  184O :  1.95   31O :  1.91  541O :  1.90  742O :  1.89
  280O :  1.88  550O :  1.87  142O :  1.87    1O :  1.83  502O :  1.77  178O :  1.73  655O :  1.68  686H :  1.63   28O :  1.63   37O :  1.58  334O :  1.57  661O :  1.56
  421O :  1.53  127O :  1.52  604O :  1.52  211O :  1.51  712O :  1.50  437H :  1.50  118O :  1.46  109O :  1.43  387H :  1.42  538O :  1.39  403O :  1.36  745O :  1.34
  469O :  1.31   86H :  1.28  367O :  1.26  438H :  1.26  133O :  1.24  475O :  1.23  509H :  1.22  583O :  1.21  610O :  1.19  684H :  1.19  702H :  1.18  181O :  1.16
  259O :  1.15  424O :  1.14   42H :  1.13  121O :  1.13  204H :  1.12   92H :  1.10  709O :  1.09  300H :  1.09  613O :  1.07  222H :  1.07  589O :  1.06  223O :  1.06
  303H :  1.04  496O :  1.02  598O :  0.97  277O :  0.94   90H :  0.93  227H :  0.91  304O :  0.91  299H :  0.90  297H :  0.89  262O :  0.88  268O :  0.88  310O :  0.87
  157O :  0.87  160O :  0.86  200H :  0.86  154O :  0.85  621H :  0.85  337O :  0.83  622O :  0.82  586O :  0.81  313O :  0.79  652O :  0.79  478O :  0.78  357H :  0.78
  506H :  0.77  327H :  0.77  205O :  0.75  607O :  0.74  698H :  0.74  694O :  0.74  124O :  0.71  680H :  0.71  635H :  0.69  372H :  0.69   94O :  0.69   51H :  0.67
  143H :  0.65  576H :  0.65  724O :  0.64  384H :  0.63  459H :  0.62  579H :  0.61  633H :  0.60  672H :  0.59  359H :  0.58  678H :  0.58  377H :  0.58   38H :  0.58
  518H :  0.58  242H :  0.58  326H :  0.57  666H :  0.57  320H :  0.57  168H :  0.57   58O :  0.56  734H :  0.55  195H :  0.55  753H :  0.55  707H :  0.55  363H :  0.55
  174H :  0.55  522H :  0.54  413H :  0.53   98H :  0.53  741H :  0.52   29H :  0.52  673O :  0.51  636H :  0.51  628O :  0.50  551H :  0.50  329H :  0.49  484O :  0.49
  274O :  0.49  322O :  0.49  554H :  0.48  515H :  0.47   44H :  0.45  671H :  0.44  311H :  0.44   70O :  0.44  626H :  0.44  630H :  0.43  198H :  0.43  561H :  0.43
  462H :  0.43    5H :  0.43    6H :  0.42  270H :  0.41  341H :  0.40  639H :  0.39  731H :  0.39  401H :  0.39   34O :  0.39  104H :  0.38  292O :  0.38  650H :  0.38
   87H :  0.37   80H :  0.37   66H :  0.37  618H :  0.36  201H :  0.36  356H :  0.36  189H :  0.35   17H :  0.35  488H :  0.34   89H :  0.34  449H :  0.34  749H :  0.34
  510H :  0.33    3H :  0.33  147H :  0.33  435H :  0.33  373O :  0.32  288H :  0.32   18H :  0.32  570H :  0.31   21H :  0.31  116H :  0.31   32H :  0.31   48H :  0.31
  473H :  0.31  393H :  0.30  543H :  0.30  318H :  0.30  627H :  0.29  176H :  0.29  717H :  0.29  638H :  0.29  524H :  0.29  144H :  0.29  381H :  0.29  471H :  0.29
  727O :  0.29  429H :  0.28  366H :  0.28  422H :  0.28  615H :  0.27  596H :  0.27  395H :  0.27   12H :  0.26  419H :  0.26  294H :  0.26  150H :  0.26  441H :  0.26
  624H :  0.25  249H :  0.25  279H :  0.25  402H :  0.24  264H :  0.24  668H :  0.24  536H :  0.24  352O :  0.24  221H :  0.24  119H :  0.24  591H :  0.24  521H :  0.24
  290H :  0.24  138H :  0.23  675H :  0.23  503H :  0.23  107H :  0.23  333H :  0.23  267H :  0.23  102H :  0.23  431H :  0.23  315H :  0.22  291H :  0.22  483H :  0.21
  248H :  0.21  218H :  0.21  608H :  0.21  497H :  0.21  669H :  0.20  257H :  0.20  654H :  0.20  213H :  0.20  108H :  0.20  485H :  0.19  210H :  0.19  156H :  0.19
  523O :  0.19  330H :  0.19  308H :  0.19   60H :  0.19   74H :  0.19  593H :  0.19  317H :  0.19  711H :  0.19  378H :  0.18   24H :  0.18  526O :  0.18  530H :  0.18
  332H :  0.18  141H :  0.18  537H :  0.18  507H :  0.18   96H :  0.17  750H :  0.17  125H :  0.17  362H :  0.17  235O :  0.17  443H :  0.17  344H :  0.17  453H :  0.17
  656H :  0.16  360H :  0.16  464H :  0.16  690H :  0.16  225H :  0.16  705H :  0.16  254H :  0.16  323H :  0.16  302H :  0.16   63H :  0.16   45H :  0.15  693H :  0.15
  564H :  0.15  365H :  0.15  188H :  0.15  215H :  0.15  182H :  0.14  237H :  0.14  588H :  0.14  287H :  0.14  692H :  0.14  368H :  0.14  719H :  0.14  677H :  0.13
  545H :  0.13  726H :  0.13  614H :  0.13  231H :  0.13  660H :  0.13  495H :  0.12  737H :  0.12  500H :  0.12  662H :  0.12  351H :  0.12   65H :  0.12  375H :  0.12
  455H :  0.12   30H :  0.12  425H :  0.12  245H :  0.12  408H :  0.12  743H :  0.11  494H :  0.11  258H :  0.11  321H :  0.11  206H :  0.11   77H :  0.11  597H :  0.11
  399H :  0.11  560H :  0.11  342H :  0.10  306H :  0.10   47H :  0.10  531H :  0.10  284H :  0.10  212H :  0.10  569H :  0.10  153H :  0.10  407H :  0.10   53H :  0.09
  687H :  0.09  338H :  0.09  177H :  0.09   69H :  0.09  446H :  0.09  527H :  0.09  444H :  0.09  380H :  0.09  336H :  0.09  644H :  0.09   27H :  0.08  122H :  0.08
  113H :  0.08  645H :  0.08  617H :  0.08   93H :  0.08  746H :  0.08  714H :  0.08  713H :  0.08  266H :  0.08  696H :  0.08  192H :  0.08  180H :  0.08  159H :  0.08
  185H :  0.07  383H :  0.07  345H :  0.07   54H :  0.07  599H :  0.07
    6 LP   *******   0.00  -4.57732 -35.32347   2.69072  199O : 19.90  298O : 17.32  508O : 16.93   91O : 12.99  388O : 12.85   82O : 12.64  385O : 12.58  145O : 10.69  436O : 10.13   76O :  9.73  640O :  9.67  289O :  9.67
  172O :  9.57  535O :  9.35  325O :  9.25    4O :  9.20    7O :  9.11  733O :  8.97  670O :  8.59  451O :  8.53  700O :  8.43  256O :  8.31  487O :  8.03   46O :  7.90
  136O :  7.76  460O :  7.46  529O :  7.35  490O :  7.31  349O :  7.13  454O :  6.67  370O :  6.53  505O :  6.49  376O :  6.49  553O :  6.37  220O :  6.35  355O :  6.32
   25O :  6.20   55O :  6.19  697O :  6.10  169O :  5.94  667O :  5.87   22O :  5.67  433O :  5.46  283O :  5.42  568O :  5.42  202O :  5.42  619O :  5.30  238O :  5.17
  358O :  5.07  415O :  5.05  148O :  5.00  400O :  4.88  328O :  4.87   52O :  4.64  682O :  4.56  241O :  4.55   49O :  4.53  316O :  4.42  637O :  4.39  214O :  4.39
  664O :  4.37  592O :  4.34  439O :  4.33  247O :  4.30  361O :  4.30  208O :  4.29  685O :  4.28  112O :  4.27  463O :  4.16  295O :  4.13  379O :  4.12  577O :  4.11
  634O :  4.08  166O :  3.96  532O :  3.96  190O :  3.90  748O :  3.86  706O :  3.86   10O :  3.84  565O :  3.79  448O :  3.78  646O :  3.76  271O :  3.74  739O :  3.72
   16O :  3.71  196O :  3.68  226O :  3.65   73O :  3.61  679O :  3.58  442O :  3.49  754O :  3.46  493O :  3.45  106O :  3.42   85O :  3.38  544O :  3.35  301O :  3.32
  736O :  3.25  520O :  3.21  571O :  3.19  730O :  3.19  499O :  3.18  286O :  3.15  193O :  3.14   64O :  3.12  718O :  3.11   43O :  3.09  691O :  3.09  115O :  3.08
  625O :  3.07  100O :  3.07  253O :  3.05  319O :  3.03  751O :  3.03  343O :  3.00  418O :  3.00  676O :  2.95  547O :  2.95  457O :  2.94  307O :  2.93  175O :  2.89
  574O :  2.89  715O :  2.87  616O :  2.84   88O :  2.81  163O :  2.80   19O :  2.66  445O :  2.62  232O :  2.58  244O :  2.57  340O :  2.53  631O :  2.53  559O :  2.52
  556O :  2.48  721O :  2.47  481O :  2.47  643O :  2.46  151O :  2.45   61O :  2.45  130O :  2.43  427O :  2.38  472O :  2.36   79O :  2.30  430O :  2.27  658O :  2.25
  511O :  2.23  397O :  2.23   67O :  2.22  217O :  2.21  139O :  2.17  601O :  2.15  391O :  2.05  346O :  2.05  703O :  2.04   97O :  2.03  394O :  1.97   40O :  1.94
  331O :  1.93  514O :  1.93  406O :  1.89  382O :  1.89  233H :  1.86  595O :  1.84  364O :  1.82  412O :  1.80   13O :  1.79  187O :  1.75  688O :  1.74  265O :  1.74
  580O :  1.73  103O :  1.73  562O :  1.73  517O :  1.72  649O :  1.68  409O :  1.67  229O :  1.65  466O :  1.65  184O :  1.65  541O :  1.61   31O :  1.60  280O :  1.59
  742O :  1.59  550O :  1.58  142O :  1.58    1O :  1.55  502O :  1.50  178O :  1.46  655O :  1.42   28O :  1.39  686H :  1.38   37O :  1.33  334O :  1.33  661O :  1.31
  421O :  1.29  127O :  1.28  604O :  1.28  211O :  1.28  712O :  1.27  437H :  1.26  118O :  1.23  109O :  1.21  387H :  1.20  538O :  1.17  403O :  1.15  745O :  1.13
  469O :  1.10   86H :  1.08  367O :  1.06  438H :  1.06  133O :  1.05  475O :  1.04  509H :  1.03  583O :  1.02  684H :  1.01  610O :  1.01  702H :  1.00  181O :  0.98
  259O :  0.97  424O :  0.96  121O :  0.95  204H :  0.94   92H :  0.93  709O :  0.92  300H :  0.92  613O :  0.91  222H :  0.90  589O :  0.90  223O :  0.89  303H :  0.88
  496O :  0.86  598O :  0.82  277O :  0.79   90H :  0.79  227H :  0.77  304O :  0.77  299H :  0.76  297H :  0.75  262O :  0.74   42H :  0.74  268O :  0.74  310O :  0.73
  157O :  0.73  160O :  0.73  200H :  0.73  154O :  0.72  621H :  0.71  337O :  0.70  622O :  0.69  586O :  0.69  313O :  0.67  652O :  0.67  478O :  0.66  357H :  0.66
  506H :  0.65  327H :  0.65  205O :  0.64  607O :  0.63  698H :  0.63  694O :  0.62  124O :  0.61  680H :  0.60  635H :  0.59  372H :  0.58   94O :  0.58   51H :  0.57
  576H :  0.55  143H :  0.55  724O :  0.54  384H :  0.53  459H :  0.52  579H :  0.52  633H :  0.51  672H :  0.50  359H :  0.49  678H :  0.49  377H :  0.49   38H :  0.49
  518H :  0.49  242H :  0.49  326H :  0.48  666H :  0.48  320H :  0.48  168H :  0.48   58O :  0.47  734H :  0.47  195H :  0.46  707H :  0.46  753H :  0.46  363H :  0.46
  174H :  0.46  522H :  0.46  413H :  0.45   98H :  0.45   29H :  0.44  741H :  0.44  673O :  0.43  636H :  0.43  628O :  0.42  551H :  0.42  329H :  0.41  484O :  0.41
  274O :  0.41  322O :  0.41  554H :  0.40  515H :  0.40   44H :  0.38  671H :  0.37  311H :  0.37   70O :  0.37  626H :  0.37  630H :  0.37  198H :  0.36  561H :  0.36
  462H :  0.36    6H :  0.36    5H :  0.36  270H :  0.35  147H :  0.34  341H :  0.34  639H :  0.33  731H :  0.33  401H :  0.33   34O :  0.33  104H :  0.32  292O :  0.32
  650H :  0.32   87H :  0.31   80H :  0.31   66H :  0.31  618H :  0.31  201H :  0.31  356H :  0.30  189H :  0.30   17H :  0.29  488H :  0.29   89H :  0.29  449H :  0.28
  749H :  0.28  510H :  0.28    3H :  0.28  435H :  0.28  373O :  0.27  288H :  0.27   21H :  0.27   18H :  0.27  570H :  0.27  116H :  0.26   32H :  0.26   48H :  0.26
  473H :  0.26  393H :  0.26  543H :  0.25  318H :  0.25  627H :  0.25  176H :  0.25  717H :  0.25  638H :  0.24  524H :  0.24  144H :  0.24  381H :  0.24  471H :  0.24
  727O :  0.24  366H :  0.24  422H :  0.23  615H :  0.23  596H :  0.23  395H :  0.22  419H :  0.22   12H :  0.22  294H :  0.22  150H :  0.22  441H :  0.22  624H :  0.21
  249H :  0.21  279H :  0.21  402H :  0.21  264H :  0.21  668H :  0.20  536H :  0.20  119H :  0.20  352O :  0.20  221H :  0.20  591H :  0.20  521H :  0.20  290H :  0.20
  138H :  0.20  675H :  0.20  503H :  0.20  107H :  0.20  333H :  0.19  267H :  0.19  102H :  0.19  429H :  0.19  315H :  0.19  291H :  0.18  483H :  0.18  248H :  0.18
  218H :  0.18  608H :  0.18  497H :  0.18  431H :  0.17  669H :  0.17  257H :  0.17  654H :  0.17  213H :  0.17  108H :  0.17  485H :  0.16  210H :  0.16  156H :  0.16
  593H :  0.16  523O :  0.16  330H :  0.16   60H :  0.16  141H :  0.16   74H :  0.16  317H :  0.16  711H :  0.16  526O :  0.15  378H :  0.15   24H :  0.15  308H :  0.15
  530H :  0.15  332H :  0.15  537H :  0.15  507H :  0.15   96H :  0.15  750H :  0.15  125H :  0.15  362H :  0.14  235O :  0.14  443H :  0.14  344H :  0.14  453H :  0.14
  656H :  0.14  360H :  0.14  690H :  0.14  464H :  0.14  225H :  0.14  705H :  0.14  254H :  0.14  323H :  0.13  302H :  0.13   63H :  0.13   45H :  0.13  693H :  0.13
  564H :  0.13  365H :  0.12  188H :  0.12  215H :  0.12  182H :  0.12  237H :  0.12  588H :  0.12  287H :  0.12  692H :  0.12  368H :  0.12  719H :  0.12  677H :  0.11
  545H :  0.11  726H :  0.11  614H :  0.11  231H :  0.11  660H :  0.11   27H :  0.10  495H :  0.10  737H :  0.10  500H :  0.10  662H :  0.10  351H :  0.10   65H :  0.10
  375H :  0.10  455H :  0.10  425H :  0.10  245H :  0.10  408H :  0.10  743H :  0.09  494H :  0.09   30H :  0.09  258H :  0.09  321H :  0.09  206H :  0.09   77H :  0.09
  597H :  0.09  399H :  0.09  560H :  0.09  342H :  0.09  306H :  0.09   47H :  0.09  153H :  0.09  531H :  0.08  284H :  0.08  212H :  0.08  569H :  0.08  407H :  0.08
   53H :  0.08  687H :  0.08  338H :  0.08  177H :  0.08   69H :  0.07  446H :  0.07  527H :  0.07  444H :  0.07  380H :  0.07  336H :  0.07  644H :  0.07  122H :  0.07
    7 LP   *******   0.00 -68.75179  14.25892 -23.14803  199O : 19.55  298O : 17.01  508O : 16.64   91O : 12.76  388O : 12.63  385O : 12.36  733O : 10.70   82O : 10.57  145O : 10.51  436O :  9.95   76O :  9.56  640O :  9.50
  289O :  9.50  172O :  9.40  535O :  9.19    7O :  9.10  325O :  9.09    4O :  9.06  670O :  8.43  451O :  8.38  700O :  8.29  256O :  8.17  487O :  7.90   46O :  7.76
  136O :  7.63  460O :  7.33  529O :  7.22  490O :  7.18  349O :  7.00  454O :  6.56  370O :  6.42  505O :  6.37  376O :  6.37  220O :  6.28  553O :  6.26  355O :  6.21
   55O :  6.09   25O :  6.04  697O :  5.99  169O :  5.83  667O :  5.77   22O :  5.58  433O :  5.36  283O :  5.33  568O :  5.33  202O :  5.33  619O :  5.19  238O :  5.09
  358O :  4.98  415O :  4.96  148O :  4.88  400O :  4.79  328O :  4.79   52O :  4.56  682O :  4.48  241O :  4.47   49O :  4.45  316O :  4.34  637O :  4.32  214O :  4.31
  664O :  4.30  592O :  4.26  439O :  4.26  247O :  4.23  361O :  4.22  208O :  4.22  685O :  4.21  112O :  4.20  463O :  4.09  295O :  4.06  379O :  4.05  577O :  4.04
  634O :  4.01  166O :  3.90  532O :  3.88  190O :  3.83  706O :  3.80  748O :  3.80   10O :  3.76  565O :  3.72  448O :  3.71  646O :  3.69  271O :  3.68  739O :  3.65
   16O :  3.64  196O :  3.62  226O :  3.59   73O :  3.54  679O :  3.51  442O :  3.43  493O :  3.40  754O :  3.39  106O :  3.36   85O :  3.32  544O :  3.30  301O :  3.26
  736O :  3.20  520O :  3.16  571O :  3.14  730O :  3.13  499O :  3.12  286O :  3.10  193O :  3.09   64O :  3.07  718O :  3.06   43O :  3.05  691O :  3.03  115O :  3.03
  100O :  3.02  625O :  3.02  253O :  3.00  319O :  2.98  751O :  2.96  418O :  2.95  343O :  2.95  307O :  2.94  676O :  2.90  547O :  2.90  457O :  2.88  175O :  2.84
  574O :  2.83  715O :  2.82  616O :  2.79   88O :  2.76  163O :  2.76   19O :  2.65  445O :  2.57  232O :  2.53  244O :  2.52  631O :  2.50  340O :  2.48  559O :  2.48
  556O :  2.43  481O :  2.42  721O :  2.42  643O :  2.42   61O :  2.41  130O :  2.39  151O :  2.38  427O :  2.34  472O :  2.32   79O :  2.26  658O :  2.21  511O :  2.21
  397O :  2.19  430O :  2.18   67O :  2.18  217O :  2.18  601O :  2.12  139O :  2.10  391O :  2.02  346O :  2.01  703O :  2.01   97O :  1.99  394O :  1.93   40O :  1.90
  514O :  1.88  331O :  1.88  382O :  1.86  406O :  1.85  233H :  1.82  595O :  1.80  364O :  1.79  412O :  1.77   13O :  1.76  187O :  1.73  688O :  1.71  265O :  1.71
  580O :  1.70  562O :  1.70  103O :  1.70  517O :  1.69  649O :  1.65  409O :  1.64  184O :  1.63  229O :  1.62  466O :  1.62  541O :  1.58   31O :  1.57  742O :  1.57
  280O :  1.56  550O :  1.55  142O :  1.55    1O :  1.52  502O :  1.47  178O :  1.44  655O :  1.40   28O :  1.36  686H :  1.36   37O :  1.31  334O :  1.31  661O :  1.29
  421O :  1.27  127O :  1.26  604O :  1.26  211O :  1.25  437H :  1.24  712O :  1.22  118O :  1.21  109O :  1.19  387H :  1.18  538O :  1.15  403O :  1.13  745O :  1.12
  469O :  1.08   86H :  1.06  367O :  1.05  438H :  1.04  133O :  1.03  475O :  1.02  509H :  1.01  583O :  1.00  684H :  1.00  610O :  0.99  702H :  0.98  181O :  0.96
  259O :  0.95  424O :  0.94  121O :  0.94  204H :  0.93   92H :  0.91  709O :  0.91  300H :  0.90  613O :  0.89  222H :  0.89  589O :  0.88  223O :  0.87  303H :  0.87
  496O :  0.84  598O :  0.81  277O :  0.78   90H :  0.78  227H :  0.76  304O :  0.76  299H :  0.75  297H :  0.74  262O :  0.73   42H :  0.73  268O :  0.73  310O :  0.72
  157O :  0.72  160O :  0.72  200H :  0.71  154O :  0.70  621H :  0.70  337O :  0.69  622O :  0.68  586O :  0.68  652O :  0.65  313O :  0.65  478O :  0.65  357H :  0.65
  506H :  0.64  327H :  0.64  205O :  0.63  607O :  0.62  698H :  0.62  694O :  0.61  124O :  0.59  680H :  0.59  635H :  0.57  372H :  0.57   94O :  0.57   51H :  0.56
  576H :  0.54  143H :  0.54  724O :  0.53  384H :  0.52  459H :  0.51  579H :  0.51  633H :  0.50  672H :  0.49  359H :  0.49  678H :  0.48  377H :  0.48  242H :  0.48
   38H :  0.48  518H :  0.48  326H :  0.48  666H :  0.47  320H :  0.47  168H :  0.47   58O :  0.46  195H :  0.46  707H :  0.45  753H :  0.45  363H :  0.45  174H :  0.45
  522H :  0.45  413H :  0.44   98H :  0.44   29H :  0.43  741H :  0.43  636H :  0.42  673O :  0.42  628O :  0.42  551H :  0.41  329H :  0.41  484O :  0.41  274O :  0.41
  322O :  0.40  554H :  0.40  515H :  0.39   44H :  0.37  734H :  0.36  311H :  0.36  671H :  0.36   70O :  0.36  626H :  0.36  630H :  0.36  198H :  0.36  561H :  0.36
  462H :  0.35    5H :  0.35    6H :  0.35  270H :  0.34  147H :  0.33  341H :  0.33  639H :  0.33  731H :  0.32  401H :  0.32   34O :  0.32  104H :  0.32  292O :  0.32
  650H :  0.31   87H :  0.31   80H :  0.31   66H :  0.30  618H :  0.30  201H :  0.30  356H :  0.30  189H :  0.29   17H :  0.29  488H :  0.29   89H :  0.28  449H :  0.28
  749H :  0.28  510H :  0.28    3H :  0.28  435H :  0.27  373O :  0.27  288H :  0.27   18H :  0.26   21H :  0.26  570H :  0.26  116H :  0.26   32H :  0.26   48H :  0.26
  473H :  0.26  393H :  0.25  543H :  0.25  318H :  0.25  627H :  0.24  176H :  0.24  717H :  0.24  638H :  0.24  524H :  0.24  144H :  0.24  381H :  0.24  471H :  0.24
  727O :  0.24  429H :  0.24  366H :  0.23  422H :  0.23  615H :  0.23  596H :  0.22  395H :  0.22  150H :  0.22   12H :  0.22  419H :  0.22  294H :  0.22  441H :  0.21
  624H :  0.21  249H :  0.21  279H :  0.21  402H :  0.20  264H :  0.20  668H :  0.20  536H :  0.20  352O :  0.20  221H :  0.20  119H :  0.20  591H :  0.20  521H :  0.20
  290H :  0.20  138H :  0.19  675H :  0.19  503H :  0.19  107H :  0.19  333H :  0.19  267H :  0.19  102H :  0.19  431H :  0.19  315H :  0.19  291H :  0.18  483H :  0.18
  248H :  0.18  218H :  0.17  608H :  0.17  497H :  0.17  669H :  0.17  257H :  0.16  654H :  0.16  213H :  0.16  108H :  0.16  485H :  0.16  210H :  0.16  156H :  0.16
  593H :  0.16  523O :  0.16  330H :  0.16  308H :  0.16   60H :  0.16   74H :  0.16  317H :  0.15  711H :  0.15  526O :  0.15  378H :  0.15   24H :  0.15  530H :  0.15
  332H :  0.15  141H :  0.15  537H :  0.15  507H :  0.15   96H :  0.15  750H :  0.14  125H :  0.14  362H :  0.14  235O :  0.14  443H :  0.14  344H :  0.14  453H :  0.14
  656H :  0.14  360H :  0.14  464H :  0.13  690H :  0.13  225H :  0.13  705H :  0.13  254H :  0.13  323H :  0.13  302H :  0.13   63H :  0.13   45H :  0.13  693H :  0.13
  564H :  0.13  365H :  0.12  188H :  0.12  215H :  0.12  182H :  0.12  237H :  0.12  588H :  0.12  287H :  0.12  692H :  0.12  368H :  0.12  719H :  0.11  677H :  0.11
  545H :  0.11  726H :  0.11  614H :  0.11  231H :  0.10  660H :  0.10  495H :  0.10  737H :  0.10  500H :  0.10  662H :  0.10  351H :  0.10   65H :  0.10  375H :  0.10
  455H :  0.10  425H :  0.10  245H :  0.10  408H :  0.10  743H :  0.09  494H :  0.09   30H :  0.09  258H :  0.09  321H :  0.09  206H :  0.09   77H :  0.09  597H :  0.09
  399H :  0.09  560H :  0.09  342H :  0.09  306H :  0.08   47H :  0.08  531H :  0.08  284H :  0.08  212H :  0.08  569H :  0.08  153H :  0.08  407H :  0.08   53H :  0.08
  687H :  0.08  338H :  0.08  177H :  0.08   69H :  0.07  446H :  0.07  527H :  0.07  444H :  0.07  380H :  0.07  644H :  0.07  336H :  0.07
    8 LP   *******   0.00 -58.36498  22.17555  18.46995  199O : 19.48  298O : 16.95  508O : 16.57   91O : 12.71  388O : 12.58  325O : 12.03  385O : 11.65   82O : 10.53  145O : 10.47  436O :  9.92   76O :  9.51  640O :  9.47
  289O :  9.46  172O :  9.36  535O :  9.16    7O :  9.07    4O :  9.03  733O :  8.78  670O :  8.41  451O :  8.33  700O :  8.26  256O :  8.14  487O :  7.87   46O :  7.74
  136O :  7.60  460O :  7.30  529O :  7.19  490O :  7.16  349O :  6.98  454O :  6.53  370O :  6.39  505O :  6.35  376O :  6.35  220O :  6.26  553O :  6.23  355O :  6.19
   55O :  6.06   25O :  6.02  697O :  5.97  169O :  5.85  667O :  5.75   22O :  5.56  433O :  5.34  283O :  5.31  568O :  5.31  202O :  5.31  619O :  5.17  238O :  5.07
  358O :  4.96  415O :  4.94  148O :  4.89  400O :  4.77  328O :  4.77   52O :  4.54  682O :  4.47  241O :  4.46   49O :  4.43  316O :  4.33  637O :  4.30  214O :  4.30
  664O :  4.28  592O :  4.24  439O :  4.24  247O :  4.21  361O :  4.21  208O :  4.20  685O :  4.19  112O :  4.19  463O :  4.07  295O :  4.04  379O :  4.04  577O :  4.02
  634O :  3.99  166O :  3.88  532O :  3.87  190O :  3.81  706O :  3.78  748O :  3.78   10O :  3.75  565O :  3.71  448O :  3.70  646O :  3.68  271O :  3.66  739O :  3.64
   16O :  3.63  196O :  3.61  226O :  3.58   73O :  3.53  679O :  3.50  442O :  3.42  493O :  3.38  754O :  3.38  106O :  3.35   85O :  3.31  544O :  3.28  301O :  3.25
  736O :  3.18  520O :  3.14  571O :  3.13  730O :  3.12  499O :  3.11  286O :  3.09  193O :  3.07   64O :  3.06   43O :  3.04  718O :  3.02  691O :  3.02  115O :  3.02
  100O :  3.01  625O :  3.01  253O :  2.98  319O :  2.97  751O :  2.95  343O :  2.94  418O :  2.94  307O :  2.92  547O :  2.89  676O :  2.89  457O :  2.87  175O :  2.83
  574O :  2.81  715O :  2.81  616O :  2.78   88O :  2.75  163O :  2.75   19O :  2.64  445O :  2.56  232O :  2.52  244O :  2.51  631O :  2.49  340O :  2.48  559O :  2.47
  556O :  2.42  721O :  2.41  481O :  2.41  643O :  2.41   61O :  2.39  130O :  2.38  151O :  2.37  427O :  2.33  472O :  2.31   79O :  2.25  397O :  2.21  658O :  2.20
  430O :  2.18  511O :  2.17   67O :  2.17  217O :  2.17  601O :  2.11  139O :  2.09  391O :  2.01  703O :  2.00   97O :  1.99  346O :  1.97  394O :  1.93   40O :  1.90
  514O :  1.87  331O :  1.87  382O :  1.85  406O :  1.85  517O :  1.84  233H :  1.82  595O :  1.80  364O :  1.78  412O :  1.76   13O :  1.75  187O :  1.72  688O :  1.71
  265O :  1.70  580O :  1.70  103O :  1.69  562O :  1.69  649O :  1.64  409O :  1.64  229O :  1.62  466O :  1.61  184O :  1.61  541O :  1.57   31O :  1.57  742O :  1.56
  280O :  1.56  550O :  1.55  142O :  1.54    1O :  1.51  502O :  1.47  178O :  1.43  655O :  1.39   28O :  1.36  686H :  1.35   37O :  1.30  334O :  1.30  661O :  1.29
  421O :  1.27  127O :  1.26  604O :  1.25  211O :  1.25  712O :  1.24  437H :  1.24  118O :  1.21  109O :  1.18  538O :  1.15  403O :  1.13  745O :  1.11  469O :  1.08
   86H :  1.06  367O :  1.04  438H :  1.04  133O :  1.03  475O :  1.02  509H :  1.01  583O :  1.00  684H :  0.99  610O :  0.99  702H :  0.98  181O :  0.96  259O :  0.95
  424O :  0.94  121O :  0.93  204H :  0.92   92H :  0.91  709O :  0.90  300H :  0.90  613O :  0.89  222H :  0.89  589O :  0.88  223O :  0.88  303H :  0.86  387H :  0.85
  496O :  0.84  598O :  0.80  277O :  0.77   90H :  0.77  227H :  0.75  304O :  0.75  299H :  0.74  297H :  0.73  262O :  0.73   42H :  0.73  268O :  0.72  310O :  0.72
  157O :  0.72  160O :  0.71  200H :  0.71  154O :  0.70  621H :  0.70  337O :  0.69  622O :  0.68  586O :  0.67  313O :  0.65  652O :  0.65  478O :  0.65  357H :  0.65
  506H :  0.64  205O :  0.62  607O :  0.62  698H :  0.62  694O :  0.61  680H :  0.59  124O :  0.59  635H :  0.57  372H :  0.57   94O :  0.57  327H :  0.56   51H :  0.55
  143H :  0.53  576H :  0.53  724O :  0.53  384H :  0.52  459H :  0.51  579H :  0.51  633H :  0.50  672H :  0.49  359H :  0.48  678H :  0.48  377H :  0.48   38H :  0.48
  242H :  0.48  518H :  0.48  320H :  0.47  666H :  0.47  168H :  0.47   58O :  0.46  734H :  0.46  195H :  0.45  707H :  0.45  753H :  0.45  363H :  0.45  174H :  0.45
  522H :  0.45  413H :  0.44   98H :  0.44   29H :  0.43  741H :  0.43  673O :  0.42  636H :  0.42  326H :  0.42  628O :  0.42  551H :  0.41  329H :  0.41  484O :  0.41
  274O :  0.41  322O :  0.40  554H :  0.40  515H :  0.39   44H :  0.37  671H :  0.36  311H :  0.36   70O :  0.36  626H :  0.36  630H :  0.36  198H :  0.36  561H :  0.35
  462H :  0.35    5H :  0.35    6H :  0.35  270H :  0.34  147H :  0.33  341H :  0.33  639H :  0.32  731H :  0.32  401H :  0.32   34O :  0.32  104H :  0.32  650H :  0.31
  292O :  0.31   87H :  0.30   80H :  0.30   66H :  0.30  618H :  0.30  201H :  0.30  356H :  0.29  189H :  0.29   17H :  0.29  488H :  0.28   89H :  0.28  449H :  0.28
  749H :  0.28  510H :  0.28    3H :  0.28  435H :  0.27  373O :  0.27  288H :  0.27   18H :  0.26   21H :  0.26  570H :  0.26  116H :  0.26   32H :  0.26   48H :  0.26
  473H :  0.26  393H :  0.25  543H :  0.25  318H :  0.24  627H :  0.24  176H :  0.24  717H :  0.24  638H :  0.24  524H :  0.24  144H :  0.24  381H :  0.24  471H :  0.24
  727O :  0.24  429H :  0.23  366H :  0.23  422H :  0.23  615H :  0.23  596H :  0.22  395H :  0.22   12H :  0.22  419H :  0.22  294H :  0.22  150H :  0.21  441H :  0.21
  624H :  0.21  249H :  0.21  279H :  0.21  402H :  0.20  264H :  0.20  668H :  0.20  536H :  0.20  352O :  0.20  221H :  0.20  119H :  0.20  591H :  0.20  521H :  0.19
  290H :  0.19  138H :  0.19  675H :  0.19  503H :  0.19  107H :  0.19  333H :  0.19  267H :  0.19  102H :  0.19  431H :  0.19  315H :  0.19  291H :  0.18  483H :  0.18
  248H :  0.17  218H :  0.17  608H :  0.17  497H :  0.17  669H :  0.17  257H :  0.16  654H :  0.16  213H :  0.16  108H :  0.16  485H :  0.16  210H :  0.16  156H :  0.16
  593H :  0.16  523O :  0.16  330H :  0.16  308H :  0.16   60H :  0.16   74H :  0.16  317H :  0.15  711H :  0.15  526O :  0.15  378H :  0.15   24H :  0.15  530H :  0.15
  332H :  0.15  141H :  0.15  537H :  0.14  507H :  0.14   96H :  0.14  750H :  0.14  125H :  0.14  362H :  0.14  235O :  0.14  443H :  0.14  344H :  0.14  453H :  0.14
  656H :  0.14  360H :  0.14  464H :  0.13  690H :  0.13  705H :  0.13  254H :  0.13  323H :  0.13  225H :  0.13  302H :  0.13   63H :  0.13   45H :  0.13  693H :  0.13
  564H :  0.12  365H :  0.12  188H :  0.12  215H :  0.12  237H :  0.12  182H :  0.12  588H :  0.12  287H :  0.12  692H :  0.12  368H :  0.12  719H :  0.11  677H :  0.11
  545H :  0.11  726H :  0.11  614H :  0.11  231H :  0.10  660H :  0.10  495H :  0.10  737H :  0.10  500H :  0.10  662H :  0.10  351H :  0.10   65H :  0.10  375H :  0.10
  455H :  0.10  425H :  0.10  245H :  0.10  408H :  0.10  743H :  0.09  494H :  0.09   30H :  0.09  321H :  0.09  258H :  0.09  206H :  0.09  597H :  0.09  399H :  0.09
   77H :  0.09  560H :  0.09  342H :  0.09  306H :  0.08   47H :  0.08  531H :  0.08  284H :  0.08  212H :  0.08  569H :  0.08  153H :  0.08  407H :  0.08   53H :  0.08
  687H :  0.08  338H :  0.08  177H :  0.08   69H :  0.07  446H :  0.07  527H :  0.07  444H :  0.07  380H :  0.07  336H :  0.07  644H :  0.07
    9 LP   *******   0.00 -50.49235  29.64818  21.43575  199O : 18.84  298O : 16.39  508O : 16.02  385O : 14.60   91O : 12.30  388O : 12.17   82O : 10.19  145O : 10.13  436O :  9.59   76O :  9.21  640O :  9.16  289O :  9.16
  172O :  9.06  535O :  8.86    7O :  8.77    4O :  8.73  733O :  8.49  670O :  8.14  451O :  8.07  325O :  8.02  700O :  7.99  256O :  7.87  487O :  7.61   46O :  7.48
  136O :  7.35  460O :  7.07  529O :  6.96  490O :  6.92  349O :  6.75  454O :  6.32  370O :  6.19  505O :  6.14  376O :  6.14  220O :  6.05  553O :  6.03  355O :  5.99
   55O :  5.86   25O :  5.83  697O :  5.78  169O :  5.63  667O :  5.56   22O :  5.38  433O :  5.17  283O :  5.14  568O :  5.13  202O :  5.13  619O :  5.00  238O :  4.90
  358O :  4.80  415O :  4.78  148O :  4.73  400O :  4.62  328O :  4.61   52O :  4.39  682O :  4.32  241O :  4.31   49O :  4.29  316O :  4.18  637O :  4.16  214O :  4.16
  664O :  4.14  592O :  4.11  439O :  4.10  247O :  4.07  361O :  4.07  208O :  4.06  685O :  4.05  112O :  4.05  463O :  3.94  295O :  3.91  379O :  3.91  577O :  3.89
  634O :  3.86  166O :  3.76  532O :  3.75  190O :  3.69  706O :  3.66  748O :  3.66   10O :  3.62  565O :  3.59  448O :  3.58  646O :  3.56  271O :  3.55  739O :  3.52
   16O :  3.51  196O :  3.49  226O :  3.46   73O :  3.42  679O :  3.38  442O :  3.31  493O :  3.27  754O :  3.27  106O :  3.24   85O :  3.20  544O :  3.18  301O :  3.14
  736O :  3.08  520O :  3.04  571O :  3.02  730O :  3.02  499O :  3.01  286O :  2.99  193O :  2.97   64O :  2.96   43O :  2.94  691O :  2.92  115O :  2.92  100O :  2.91
  625O :  2.91  253O :  2.89  718O :  2.87  319O :  2.87  751O :  2.86  343O :  2.84  418O :  2.84  307O :  2.83  676O :  2.80  547O :  2.80  457O :  2.78  175O :  2.73
  574O :  2.72  715O :  2.72  616O :  2.69   88O :  2.66  163O :  2.66   19O :  2.55  445O :  2.48  232O :  2.44  244O :  2.43  631O :  2.41  340O :  2.39  559O :  2.39
  556O :  2.34  387H :  2.34  481O :  2.34  721O :  2.34  643O :  2.33   61O :  2.32  130O :  2.30  151O :  2.29  427O :  2.26  472O :  2.24   79O :  2.17  658O :  2.13
  397O :  2.12  511O :  2.11  430O :  2.11   67O :  2.10  217O :  2.10  601O :  2.04  139O :  2.02  391O :  1.94  703O :  1.94  346O :  1.93   97O :  1.92  394O :  1.86
   40O :  1.84  514O :  1.81  331O :  1.81  382O :  1.79  406O :  1.79  233H :  1.76  595O :  1.74  364O :  1.72  412O :  1.71   13O :  1.69  517O :  1.66  187O :  1.66
  688O :  1.65  265O :  1.65  580O :  1.64  103O :  1.64  562O :  1.64  649O :  1.59  409O :  1.58  229O :  1.56  466O :  1.56  184O :  1.56  541O :  1.52   31O :  1.51
  742O :  1.51  280O :  1.51  550O :  1.50  142O :  1.49    1O :  1.46  502O :  1.42  178O :  1.38  655O :  1.35   28O :  1.31  686H :  1.31   37O :  1.26  334O :  1.26
  661O :  1.25  421O :  1.23  127O :  1.22  604O :  1.21  211O :  1.21  712O :  1.20  437H :  1.20  118O :  1.17  109O :  1.14  538O :  1.11  403O :  1.09  745O :  1.07
  469O :  1.04   86H :  1.02  367O :  1.01  438H :  1.01  133O :  0.99  475O :  0.99  509H :  0.97  583O :  0.97  684H :  0.96  610O :  0.96  702H :  0.95  181O :  0.93
  259O :  0.92  424O :  0.91  121O :  0.90  204H :  0.89   92H :  0.88  709O :  0.88  300H :  0.87  613O :  0.86  222H :  0.86  589O :  0.85  223O :  0.85  303H :  0.84
  496O :  0.81  598O :  0.78  277O :  0.75   90H :  0.75  227H :  0.73  304O :  0.73  299H :  0.72  297H :  0.71  262O :  0.71   42H :  0.70  268O :  0.70  310O :  0.70
  157O :  0.69  160O :  0.69  200H :  0.69  154O :  0.68  621H :  0.68  337O :  0.66  622O :  0.65  586O :  0.65  313O :  0.63  652O :  0.63  478O :  0.63  357H :  0.63
  506H :  0.62  205O :  0.60  327H :  0.60  607O :  0.60  698H :  0.60  694O :  0.59  124O :  0.57  635H :  0.55  372H :  0.55  680H :  0.55   94O :  0.55   51H :  0.54
  143H :  0.52  576H :  0.52  724O :  0.51  384H :  0.50  459H :  0.49  579H :  0.49  633H :  0.48  672H :  0.48  359H :  0.47  678H :  0.47  377H :  0.47   38H :  0.46
  518H :  0.46  242H :  0.46  666H :  0.46  320H :  0.45  168H :  0.45  326H :  0.45   58O :  0.44  734H :  0.44  195H :  0.44  753H :  0.44  707H :  0.44  363H :  0.44
  174H :  0.44  522H :  0.43  413H :  0.43   98H :  0.42   29H :  0.42  741H :  0.42  636H :  0.41  673O :  0.41  628O :  0.40  551H :  0.40  329H :  0.39  484O :  0.39
  274O :  0.39  322O :  0.39  554H :  0.38  515H :  0.38   44H :  0.36  671H :  0.35  311H :  0.35   70O :  0.35  626H :  0.35  630H :  0.35  198H :  0.34  561H :  0.34
  462H :  0.34    5H :  0.34    6H :  0.34  270H :  0.33  147H :  0.32  341H :  0.32  639H :  0.31  731H :  0.31  401H :  0.31   34O :  0.31  104H :  0.31  650H :  0.30
  292O :  0.30   87H :  0.29   80H :  0.29   66H :  0.29  618H :  0.29  201H :  0.29  356H :  0.29  189H :  0.28   17H :  0.28  488H :  0.28   89H :  0.27  449H :  0.27
  749H :  0.27  510H :  0.27    3H :  0.27  435H :  0.26  373O :  0.26  288H :  0.26   18H :  0.25   21H :  0.25  570H :  0.25  116H :  0.25   32H :  0.25   48H :  0.25
  473H :  0.25  393H :  0.24  543H :  0.24  318H :  0.24  627H :  0.23  176H :  0.23  717H :  0.23  638H :  0.23  524H :  0.23  144H :  0.23  381H :  0.23  471H :  0.23
[...]
   370   8 o    1.840 --   372 h    0.814   371 h    0.814
   371   1 h    0.875 --   370 o    0.814
   372   1 h    0.886 --   370 o    0.814
   373   8 o    1.854 --   374 h    0.898   375 h    0.810
   374   1 h    0.909 --   373 o    0.898
   375   1 h    0.877 --   373 o    0.810
   376   8 o    1.845 --   377 h    0.853   378 h    0.792
   377   1 h    0.884 --   376 o    0.853
   378   1 h    0.873 --   376 o    0.792
   379   8 o    1.851 --   380 h    0.838   381 h    0.829
   380   1 h    0.891 --   379 o    0.838
   381   1 h    0.889 --   379 o    0.829
   382   8 o    1.868 --   384 h    0.856   383 h    0.844
   383   1 h    0.887 --   382 o    0.844
   384   1 h    0.889 --   382 o    0.856
   385   8 o    1.857 --   386 h    0.880   387 h    0.813
   386   1 h    0.899 --   385 o    0.880
   387   1 h    0.882 --   385 o    0.813
   388   8 o    1.856 --   389 h    0.847   390 h    0.794
   389   1 h    0.890 --   388 o    0.847
   390   1 h    0.875 --   388 o    0.794
   391   8 o    1.873 --   393 h    0.869   392 h    0.869
   392   1 h    0.895 --   391 o    0.869
   393   1 h    0.897 --   391 o    0.869
   394   8 o    1.891 --   396 h    0.825   395 h    0.795
   395   1 h    0.874 --   394 o    0.795
   396   1 h    0.883 --   394 o    0.825
   397   8 o    1.877 --   399 h    0.812   398 h    0.785
   398   1 h    0.878 --   397 o    0.785
   399   1 h    0.887 --   397 o    0.812
   400   8 o    1.802 --   402 h    0.852   401 h    0.848
   401   1 h    0.894 --   400 o    0.848
   402   1 h    0.897 --   400 o    0.852
   403   8 o    1.862 --   404 h    0.841   405 h    0.832
   404   1 h    0.888 --   403 o    0.841
   405   1 h    0.887 --   403 o    0.832
   406   8 o    1.849 --   407 h    0.834   408 h    0.823
   407   1 h    0.880 --   406 o    0.834
   408   1 h    0.882 --   406 o    0.823
   409   8 o    1.849 --   411 h    0.811   410 h    0.800
   410   1 h    0.885 --   409 o    0.800
   411   1 h    0.881 --   409 o    0.811
   412   8 o    1.892 --   413 h    0.824   414 h    0.806
   413   1 h    0.885 --   412 o    0.824
   414   1 h    0.875 --   412 o    0.806
   415   8 o    1.873 --   417 h    0.834   416 h    0.794
   416   1 h    0.885 --   415 o    0.794
   417   1 h    0.893 --   415 o    0.834
   418   8 o    1.851 --   420 h    0.878   419 h    0.810
   419   1 h    0.883 --   418 o    0.810
   420   1 h    0.900 --   418 o    0.878
   421   8 o    1.854 --   423 h    0.915   422 h    0.776
   422   1 h    0.871 --   421 o    0.776
   423   1 h    0.919 --   421 o    0.915
   424   8 o    1.852 --   425 h    0.819   426 h    0.816
   425   1 h    0.886 --   424 o    0.819
   426   1 h    0.890 --   424 o    0.816
   427   8 o    1.864 --   429 h    0.809   428 h    0.802
   428   1 h    0.882 --   427 o    0.802
   429   1 h    0.872 --   427 o    0.809
   430   8 o    1.853 --   431 h    0.832   432 h    0.828
   431   1 h    0.884 --   430 o    0.832
   432   1 h    0.879 --   430 o    0.828
   433   8 o    1.834 --   435 h    0.867   434 h    0.800
   434   1 h    0.881 --   433 o    0.800
   435   1 h    0.897 --   433 o    0.867
   436   8 o    1.851 --   438 h    0.848   437 h    0.825
   437   1 h    0.884 --   436 o    0.825
   438   1 h    0.885 --   436 o    0.848
   439   8 o    1.874 --   441 h    0.846   440 h    0.808   626 h    0.102
   440   1 h    0.879 --   439 o    0.808
   441   1 h    0.891 --   439 o    0.846
   442   8 o    1.845 --   444 h    0.866   443 h    0.862
   443   1 h    0.896 --   442 o    0.862
   444   1 h    0.895 --   442 o    0.866
   445   8 o    1.866 --   447 h    0.915   446 h    0.807
   446   1 h    0.873 --   445 o    0.807
   447   1 h    0.920 --   445 o    0.915
   448   8 o    1.799 --   450 h    0.849   449 h    0.848
   449   1 h    0.895 --   448 o    0.848
   450   1 h    0.894 --   448 o    0.849
   451   8 o    1.856 --   453 h    0.847   452 h    0.817
   452   1 h    0.874 --   451 o    0.817
   453   1 h    0.887 --   451 o    0.847
   454   8 o    1.850 --   455 h    0.862   456 h    0.860
   455   1 h    0.894 --   454 o    0.862
   456   1 h    0.893 --   454 o    0.860
   457   8 o    1.845 --   459 h    0.851   458 h    0.846
   458   1 h    0.894 --   457 o    0.846
   459   1 h    0.896 --   457 o    0.851
   460   8 o    1.848 --   461 h    0.846   462 h    0.814
   461   1 h    0.895 --   460 o    0.846
   462   1 h    0.890 --   460 o    0.814
   463   8 o    1.866 --   465 h    0.892   464 h    0.799
   464   1 h    0.868 --   463 o    0.799
   465   1 h    0.906 --   463 o    0.892
   466   8 o    1.855 --   467 h    0.814   468 h    0.804
   467   1 h    0.885 --   466 o    0.814
   468   1 h    0.879 --   466 o    0.804
   469   8 o    1.840 --   470 h    0.868   471 h    0.850
   470   1 h    0.893 --   469 o    0.868
   471   1 h    0.896 --   469 o    0.850
   472   8 o    1.854 --   473 h    0.864   474 h    0.812
   473   1 h    0.895 --   472 o    0.864
   474   1 h    0.881 --   472 o    0.812
   475   8 o    1.856 --   477 h    0.879   476 h    0.841
   476   1 h    0.887 --   475 o    0.841
   477   1 h    0.899 --   475 o    0.879
   478   8 o    1.855 --   480 h    0.868   479 h    0.850
   479   1 h    0.890 --   478 o    0.850
   480   1 h    0.890 --   478 o    0.868
   481   8 o    1.871 --   482 h    0.807   483 h    0.806
   482   1 h    0.881 --   481 o    0.807
   483   1 h    0.869 --   481 o    0.806
   484   8 o    1.842 --   485 h    0.896   486 h    0.776
   485   1 h    0.906 --   484 o    0.896
   486   1 h    0.869 --   484 o    0.776
   487   8 o    1.847 --   488 h    0.831   489 h    0.816
   488   1 h    0.884 --   487 o    0.831
   489   1 h    0.891 --   487 o    0.816
   490   8 o    1.844 --   492 h    0.866   491 h    0.832
   491   1 h    0.889 --   490 o    0.832
   492   1 h    0.895 --   490 o    0.866
   493   8 o    1.871 --   495 h    0.837   494 h    0.776
   494   1 h    0.873 --   493 o    0.776
   495   1 h    0.884 --   493 o    0.837
   496   8 o    1.871 --   497 h    0.840   498 h    0.807
   497   1 h    0.882 --   496 o    0.840
   498   1 h    0.872 --   496 o    0.807
   499   8 o    1.850 --   500 h    0.888   501 h    0.824
   500   1 h    0.901 --   499 o    0.888
   501   1 h    0.885 --   499 o    0.824
   502   8 o    1.830 --   504 h    0.890   503 h    0.861
   503   1 h    0.896 --   502 o    0.861
   504   1 h    0.903 --   502 o    0.890
   505   8 o    1.855 --   506 h    0.865   507 h    0.841
   506   1 h    0.894 --   505 o    0.865
   507   1 h    0.891 --   505 o    0.841
   508   8 o    1.830 --   509 h    0.856   510 h    0.837
   509   1 h    0.898 --   508 o    0.856
   510   1 h    0.884 --   508 o    0.837
   511   8 o    1.857 --   512 h    0.809   513 h    0.804
   512   1 h    0.885 --   511 o    0.809
   513   1 h    0.883 --   511 o    0.804
   514   8 o    1.836 --   515 h    0.884   516 h    0.807
   515   1 h    0.904 --   514 o    0.884
   516   1 h    0.875 --   514 o    0.807
   517   8 o    1.868 --   519 h    0.866   518 h    0.838
   518   1 h    0.890 --   517 o    0.838
   519   1 h    0.899 --   517 o    0.866
   520   8 o    1.833 --   522 h    0.870   521 h    0.817
   521   1 h    0.886 --   520 o    0.817
   522   1 h    0.898 --   520 o    0.870
   523   8 o    1.870 --   525 h    0.892   524 h    0.782
   524   1 h    0.871 --   523 o    0.782
   525   1 h    0.905 --   523 o    0.892
   526   8 o    1.866 --   527 h    0.853   528 h    0.790
   527   1 h    0.896 --   526 o    0.853
   528   1 h    0.879 --   526 o    0.790
   529   8 o    1.877 --   530 h    0.816   531 h    0.808
   530   1 h    0.882 --   529 o    0.816
   531   1 h    0.875 --   529 o    0.808
   532   8 o    1.817 --   534 h    0.840   533 h    0.839
   533   1 h    0.888 --   532 o    0.839
   534   1 h    0.893 --   532 o    0.840
   535   8 o    1.836 --   536 h    0.872   537 h    0.816
   536   1 h    0.894 --   535 o    0.872
   537   1 h    0.885 --   535 o    0.816
   538   8 o    1.808 --   540 h    0.882   539 h    0.836
   539   1 h    0.894 --   538 o    0.836
   540   1 h    0.903 --   538 o    0.882
   541   8 o    1.840 --   543 h    0.909   542 h    0.795
   542   1 h    0.880 --   541 o    0.795
   543   1 h    0.917 --   541 o    0.909
   544   8 o    1.835 --   546 h    0.841   545 h    0.831
   545   1 h    0.883 --   544 o    0.831
   546   1 h    0.887 --   544 o    0.841
   547   8 o    1.851 --   548 h    0.861   549 h    0.836
   548   1 h    0.893 --   547 o    0.861
   549   1 h    0.887 --   547 o    0.836
   550   8 o    1.817 --   552 h    0.870   551 h    0.838
   551   1 h    0.893 --   550 o    0.838
   552   1 h    0.897 --   550 o    0.870
   553   8 o    1.872 --   555 h    0.860   554 h    0.820
   554   1 h    0.883 --   553 o    0.820
   555   1 h    0.893 --   553 o    0.860
   556   8 o    1.865 --   558 h    0.889   557 h    0.807
   557   1 h    0.883 --   556 o    0.807
   558   1 h    0.904 --   556 o    0.889
   559   8 o    1.843 --   560 h    0.847   561 h    0.844
   560   1 h    0.895 --   559 o    0.847
   561   1 h    0.886 --   559 o    0.844
   562   8 o    1.794 --   563 h    0.848   564 h    0.841
   563   1 h    0.897 --   562 o    0.848
   564   1 h    0.894 --   562 o    0.841
   565   8 o    1.853 --   566 h    0.853   567 h    0.844
   566   1 h    0.893 --   565 o    0.853
   567   1 h    0.889 --   565 o    0.844
   568   8 o    1.808 --   569 h    0.859   570 h    0.839
   569   1 h    0.895 --   568 o    0.859
   570   1 h    0.885 --   568 o    0.839
   571   8 o    1.848 --   573 h    0.850   572 h    0.835
   572   1 h    0.892 --   571 o    0.835
   573   1 h    0.892 --   571 o    0.850
   574   8 o    1.823 --   576 h    0.884   575 h    0.839
   575   1 h    0.887 --   574 o    0.839
   576   1 h    0.899 --   574 o    0.884
   577   8 o    1.852 --   578 h    0.827   579 h    0.821
   578   1 h    0.881 --   577 o    0.827
   579   1 h    0.889 --   577 o    0.821
   580   8 o    1.855 --   581 h    0.868   582 h    0.822
   581   1 h    0.895 --   580 o    0.868
   582   1 h    0.886 --   580 o    0.822
   583   8 o    1.819 --   585 h    0.850   584 h    0.845
   584   1 h    0.893 --   583 o    0.845
   585   1 h    0.891 --   583 o    0.850
   586   8 o    1.830 --   587 h    0.821   588 h    0.787
   587   1 h    0.890 --   586 o    0.821
   588   1 h    0.881 --   586 o    0.787
   589   8 o    1.846 --   591 h    0.880   590 h    0.848
   590   1 h    0.883 --   589 o    0.848
   591   1 h    0.901 --   589 o    0.880
   592   8 o    1.848 --   594 h    0.854   593 h    0.822
   593   1 h    0.886 --   592 o    0.822
   594   1 h    0.894 --   592 o    0.854
   595   8 o    1.852 --   596 h    0.895   597 h    0.798
   596   1 h    0.909 --   595 o    0.895
   597   1 h    0.870 --   595 o    0.798
   598   8 o    1.840 --   599 h    0.854   600 h    0.846
   599   1 h    0.892 --   598 o    0.854
   600   1 h    0.888 --   598 o    0.846
   601   8 o    1.827 --   602 h    0.845   603 h    0.821
   602   1 h    0.890 --   601 o    0.845
   603   1 h    0.882 --   601 o    0.821
   604   8 o    1.852 --   605 h    0.865   606 h    0.848
   605   1 h    0.902 --   604 o    0.865
   606   1 h    0.894 --   604 o    0.848
   607   8 o    1.878 --   609 h    0.864   608 h    0.854
   608   1 h    0.892 --   607 o    0.854
   609   1 h    0.894 --   607 o    0.864
   610   8 o    1.854 --   611 h    0.870   612 h    0.867
   611   1 h    0.898 --   610 o    0.870
   612   1 h    0.893 --   610 o    0.867
   613   8 o    1.832 --   614 h    0.858   615 h    0.828
   614   1 h    0.899 --   613 o    0.858
   615   1 h    0.885 --   613 o    0.828
   616   8 o    1.853 --   617 h    0.813   618 h    0.809
   617   1 h    0.888 --   616 o    0.813
   618   1 h    0.889 --   616 o    0.809
   619   8 o    1.817 --   620 h    0.842   621 h    0.824
   620   1 h    0.890 --   619 o    0.842
   621   1 h    0.889 --   619 o    0.824
   622   8 o    1.855 --   623 h    0.911   624 h    0.797
   623   1 h    0.918 --   622 o    0.911
   624   1 h    0.874 --   622 o    0.797
   625   8 o    1.841 --   627 h    0.846   626 h    0.766
   626   1 h    0.877 --   625 o    0.766   439 o    0.102
   627   1 h    0.897 --   625 o    0.846
   628   8 o    1.862 --   629 h    0.856   630 h    0.797
   629   1 h    0.893 --   628 o    0.856
   630   1 h    0.883 --   628 o    0.797
   631   8 o    1.858 --   632 h    0.820   633 h    0.816
   632   1 h    0.884 --   631 o    0.820
   633   1 h    0.885 --   631 o    0.816
   634   8 o    1.836 --   635 h    0.862   636 h    0.837
   635   1 h    0.899 --   634 o    0.862
   636   1 h    0.891 --   634 o    0.837
   637   8 o    1.856 --   638 h    0.893   639 h    0.831
   638   1 h    0.907 --   637 o    0.893
   639   1 h    0.876 --   637 o    0.831
   640   8 o    1.846 --   642 h    0.862   641 h    0.802
   641   1 h    0.881 --   640 o    0.802
   642   1 h    0.895 --   640 o    0.862
   643   8 o    1.838 --   645 h    0.858   644 h    0.851
   644   1 h    0.893 --   643 o    0.851
   645   1 h    0.897 --   643 o    0.858
   646   8 o    1.838 --   647 h    0.873   648 h    0.800
   647   1 h    0.900 --   646 o    0.873
   648   1 h    0.872 --   646 o    0.800
   649   8 o    1.866 --   650 h    0.851   651 h    0.841
   650   1 h    0.888 --   649 o    0.851
   651   1 h    0.886 --   649 o    0.841
   652   8 o    1.848 --   654 h    0.845   653 h    0.828
   653   1 h    0.889 --   652 o    0.828
   654   1 h    0.889 --   652 o    0.845
   655   8 o    1.827 --   657 h    0.878   656 h    0.857
   656   1 h    0.895 --   655 o    0.857
   657   1 h    0.901 --   655 o    0.878
   658   8 o    1.823 --   659 h    0.840   660 h    0.833
   659   1 h    0.892 --   658 o    0.840
   660   1 h    0.887 --   658 o    0.833
   661   8 o    1.860 --   662 h    0.876   663 h    0.814
   662   1 h    0.903 --   661 o    0.876
   663   1 h    0.883 --   661 o    0.814
   664   8 o    1.869 --   665 h    0.821   666 h    0.789
   665   1 h    0.879 --   664 o    0.821
   666   1 h    0.879 --   664 o    0.789
   667   8 o    1.811 --   669 h    0.862   668 h    0.836
   668   1 h    0.891 --   667 o    0.836
   669   1 h    0.900 --   667 o    0.862
   670   8 o    1.852 --   672 h    0.857   671 h    0.840
   671   1 h    0.893 --   670 o    0.840
   672   1 h    0.894 --   670 o    0.857
   673   8 o    1.871 --   674 h    0.839   675 h    0.800
   674   1 h    0.888 --   673 o    0.839
   675   1 h    0.877 --   673 o    0.800
   676   8 o    1.876 --   678 h    0.846   677 h    0.767
   677   1 h    0.867 --   676 o    0.767
   678   1 h    0.889 --   676 o    0.846
   679   8 o    1.859 --   681 h    0.835   680 h    0.815
   680   1 h    0.890 --   679 o    0.815
   681   1 h    0.887 --   679 o    0.835
   682   8 o    1.830 --   683 h    0.857   684 h    0.821
   683   1 h    0.893 --   682 o    0.857
   684   1 h    0.889 --   682 o    0.821
   685   8 o    1.880 --   686 h    0.837   687 h    0.823
   686   1 h    0.890 --   685 o    0.837
   687   1 h    0.884 --   685 o    0.823
   688   8 o    1.853 --   689 h    0.829   690 h    0.817
   689   1 h    0.887 --   688 o    0.829
   690   1 h    0.876 --   688 o    0.817
   691   8 o    1.843 --   693 h    0.874   692 h    0.807
   692   1 h    0.877 --   691 o    0.807
   693   1 h    0.898 --   691 o    0.874
   694   8 o    1.894 --   696 h    0.823   695 h    0.813
   695   1 h    0.876 --   694 o    0.813
   696   1 h    0.879 --   694 o    0.823
   697   8 o    1.845 --   698 h    0.871   699 h    0.851
   698   1 h    0.900 --   697 o    0.871
   699   1 h    0.891 --   697 o    0.851
   700   8 o    1.849 --   702 h    0.920   701 h    0.798
   701   1 h    0.879 --   700 o    0.798
   702   1 h    0.923 --   700 o    0.920
   703   8 o    1.863 --   705 h    0.870   704 h    0.823
   704   1 h    0.884 --   703 o    0.823
   705   1 h    0.898 --   703 o    0.870
   706   8 o    1.851 --   708 h    0.848   707 h    0.848
   707   1 h    0.891 --   706 o    0.848
   708   1 h    0.892 --   706 o    0.848
   709   8 o    1.827 --   710 h    0.841   711 h    0.838
   710   1 h    0.888 --   709 o    0.841
   711   1 h    0.891 --   709 o    0.838
   712   8 o    1.884 --   713 h    0.831   714 h    0.796
   713   1 h    0.886 --   712 o    0.831
   714   1 h    0.877 --   712 o    0.796
   715   8 o    1.848 --   717 h    0.845   716 h    0.813
   716   1 h    0.880 --   715 o    0.813
   717   1 h    0.891 --   715 o    0.845
   718   8 o    1.885 --   719 h    0.856   720 h    0.799
   719   1 h    0.895 --   718 o    0.856
   720   1 h    0.881 --   718 o    0.799
   721   8 o    1.876 --   723 h    0.846   722 h    0.831
   722   1 h    0.888 --   721 o    0.831
   723   1 h    0.894 --   721 o    0.846
   724   8 o    1.866 --   726 h    0.843   725 h    0.821
   725   1 h    0.878 --   724 o    0.821
   726   1 h    0.891 --   724 o    0.843
   727   8 o    1.823 --   729 h    0.875   728 h    0.871
   728   1 h    0.903 --   727 o    0.871
   729   1 h    0.901 --   727 o    0.875
   730   8 o    1.858 --   731 h    0.910   732 h    0.821
   731   1 h    0.919 --   730 o    0.910
   732   1 h    0.876 --   730 o    0.821
   733   8 o    1.825 --   735 h    0.905   734 h    0.826
   734   1 h    0.884 --   733 o    0.826
   735   1 h    0.915 --   733 o    0.905
   736   8 o    1.856 --   737 h    0.870   738 h    0.825
   737   1 h    0.897 --   736 o    0.870
   738   1 h    0.883 --   736 o    0.825
   739   8 o    1.836 --   741 h    0.836   740 h    0.831
   740   1 h    0.882 --   739 o    0.831
   741   1 h    0.889 --   739 o    0.836
   742   8 o    1.844 --   744 h    0.871   743 h    0.795
   743   1 h    0.879 --   742 o    0.795
   744   1 h    0.900 --   742 o    0.871
   745   8 o    1.804 --   747 h    0.854   746 h    0.834
   746   1 h    0.895 --   745 o    0.834
   747   1 h    0.897 --   745 o    0.854
   748   8 o    1.874 --   750 h    0.817   749 h    0.774
   749   1 h    0.878 --   748 o    0.774
   750   1 h    0.889 --   748 o    0.817
   751   8 o    1.835 --   753 h    0.877   752 h    0.849
   752   1 h    0.883 --   751 o    0.849
   753   1 h    0.894 --   751 o    0.877
   754   8 o    1.840 --   755 h    0.877   756 h    0.869
   755   1 h    0.888 --   754 o    0.877
   756   1 h    0.885 --   754 o    0.869
 ---------------------------------------------------------------------------

Topologies differ in total number of bonds
Writing topology from bond orders to xtbtopo.mol

molecular dipole:
                 x           y           z       tot (Debye)
 q only:        7.110      -0.109      -1.847
   full:        9.157      -0.210      -2.787      24.335
molecular quadrupole (traceless):
                xx          xy          yy          xz          yz          zz
 q only:       68.570     -33.457     -49.191     -36.743     -47.823     -19.379
  q+dip:       86.485     -53.356     -62.812     -49.374     -48.538     -23.673
   full:       87.289     -53.321     -62.984     -49.354     -46.192     -24.304


           -------------------------------------------------
          | TOTAL ENERGY            -1283.346201941672 Eh   |
          | GRADIENT NORM               0.039326889195 Eh/α |
          | HOMO-LUMO GAP               7.938171387403 eV   |
           -------------------------------------------------

------------------------------------------------------------------------
 * finished run on 2022/11/24 at 09:29:07.853     
------------------------------------------------------------------------
 total:
 * wall-time:     0 d,  0 h,  0 min, 57.775 sec
 *  cpu-time:     0 d,  0 h,  1 min, 12.789 sec
 * ratio c/w:     1.260 speedup
 SCF:
 * wall-time:     0 d,  0 h,  0 min, 56.762 sec
 *  cpu-time:     0 d,  0 h,  1 min, 11.079 sec
 * ratio c/w:     1.252 speedup

