      -----------------------------------------------------------      
     |                   =====================                   |     
     |                           x T B                           |     
     |                   =====================                   |     
     |                         S. Grimme                         |     
     |          Mulliken Center for Theoretical Chemistry        |     
     |                    University of Bonn                     |     
      -----------------------------------------------------------      

   * xtb version 6.5.1 (579679a) compiled by 'ehlert@majestix' on 2022-07-11

   xtb is free software: you can redistribute it and/or modify it under
   the terms of the GNU Lesser General Public License as published by
   the Free Software Foundation, either version 3 of the License, or
   (at your option) any later version.
   
   xtb is distributed in the hope that it will be useful,
   but WITHOUT ANY WARRANTY; without even the implied warranty of
   MERCHANTABILITY or FITNESS FOR A PARTICULAR PURPOSE.  See the
   GNU Lesser General Public License for more details.
   
   Cite this work as:
   * C. Bannwarth, E. Caldeweyher, S. Ehlert, A. Hansen, P. Pracht,
     J. Seibert, S. Spicher, S. Grimme, WIREs Comput. Mol. Sci., 2020, 11,
     e01493. DOI: 10.1002/wcms.1493
   
   for GFN2-xTB:
   * C. Bannwarth, S. Ehlert and S. Grimme., J. Chem. Theory Comput., 2019,
     15, 1652-1671. DOI: 10.1021/acs.jctc.8b01176
   for GFN1-xTB:
   * S. Grimme, C. Bannwarth, P. Shushkov, J. Chem. Theory Comput., 2017,
     13, 1989-2009. DOI: 10.1021/acs.jctc.7b00118
   for GFN0-xTB:
   * P. Pracht, E. Caldeweyher, S. Ehlert, S. Grimme, ChemRxiv, 2019, preprint.
     DOI: 10.26434/chemrxiv.8326202.v1
   for GFN-FF:
   * S. Spicher and S. Grimme, Angew. Chem. Int. Ed., 2020, 59, 15665-15673.
     DOI: 10.1002/anie.202004239
   
   for ALPB and GBSA implicit solvation:
   * S. Ehlert, M. Stahn, S. Spicher, S. Grimme, J. Chem. Theory Comput.,
     2021, 17, 4250-4261. DOI: 10.1021/acs.jctc.1c00471
   
   for DFT-D4:
   * E. Caldeweyher, C. Bannwarth and S. Grimme, J. Chem. Phys., 2017,
     147, 034112. DOI: 10.1063/1.4993215
   * E. Caldeweyher, S. Ehlert, A. Hansen, H. Neugebauer, S. Spicher,
     C. Bannwarth and S. Grimme, J. Chem. Phys., 2019, 150, 154122.
     DOI: 10.1063/1.5090222
   * E. Caldeweyher, J.-M. Mewes, S. Ehlert and S. Grimme, Phys. Chem. Chem. Phys.
     2020, 22, 8499-8512. DOI: 10.1039/D0CP00502A
   
   for sTDA-xTB:
   * S. Grimme and C. Bannwarth, J. Chem. Phys., 2016, 145, 054103.
     DOI: 10.1063/1.4959605
   
   in the mass-spec context:
   * V. Asgeirsson, C. Bauer and S. Grimme, Chem. Sci., 2017, 8, 4879.
     DOI: 10.1039/c7sc00601b
   * J. Koopman and S. Grimme, ACS Omega 2019, 4, 12, 15120-15133.
     DOI: 10.1021/acsomega.9b02011
   
   for metadynamics refer to:
   * S. Grimme, J. Chem. Theory Comput., 2019, 155, 2847-2862
     DOI: 10.1021/acs.jctc.9b00143
   
   for SPH calculations refer to:
   * S. Spicher and S. Grimme, J. Chem. Theory Comput., 2021, 17, 1701-1714
     DOI: 10.1021/acs.jctc.0c01306
   
   with help from (in alphabetical order)
   P. Atkinson, C. Bannwarth, F. Bohle, G. Brandenburg, E. Caldeweyher
   M. Checinski, S. Dohm, S. Ehlert, S. Ehrlich, I. Gerasimov, C. Hölzer
   A. Katbashev, J. Koopman, C. Lavigne, S. Lehtola, F. März, M. Müller,
   F. Musil, H. Neugebauer, J. Pisarek, C. Plett, P. Pracht, F. Pultar,
   J. Seibert, P. Shushkov, S. Spicher, M. Stahn, M. Steiner, T. Strunk,
   J. Stückrath, T. Rose, and J. Unsleber
   
 * started run on 2022/11/24 at 09:27:46.527     

           -------------------------------------------------
          |                Calculation Setup                |
           -------------------------------------------------

          program call               : xtb xtbopt.coord --gfn2 --sp --gbsa water
          hostname                   : cn0341
          coordinate file            : xtbopt.coord
          omp threads                :                     2

   ID    Z sym.   atoms
    1    8 o      1, 4, 7, 10, 13, 16, 19, 22, 25, 28, 31, 34, 37, 40, 43,
                  46, 49, 52, 55, 58, 61, 64, 67, 70, 73, 76, 79, 82, 85, 88,
                  91, 94, 97, 100, 103, 106, 109, 112, 115, 118, 121, 124,
                  127, 130, 133, 136, 139, 142, 145, 148, 151, 154, 157, 160,
                  163, 166, 169, 172, 175, 178, 181, 184, 187, 190, 193, 196,
                  199, 202, 205, 208, 211, 214, 217, 220, 223, 226, 229, 232,
                  235, 238, 241, 244, 247, 250, 253, 256, 259, 262, 265, 268,
                  271, 274, 277, 280, 283, 286, 289, 292, 295, 298, 301, 304,
                  307, 310, 313, 316, 319, 322, 325, 328, 331, 334, 337, 340,
                  343, 346, 349, 352, 355, 358, 361, 364, 367, 370, 373, 376,
                  379, 382, 385, 388, 391, 394, 397, 400, 403, 406, 409, 412,
                  415, 418, 421, 424, 427, 430, 433, 436, 439, 442, 445, 448,
                  451, 454, 457, 460, 463, 466, 469, 472, 475, 478, 481, 484,
                  487, 490, 493, 496, 499, 502, 505, 508, 511, 514, 517, 520,
                  523, 526, 529, 532, 535, 538, 541, 544, 547, 550, 553, 556,
                  559, 562, 565, 568, 571, 574, 577, 580, 583, 586, 589, 592,
                  595, 598, 601, 604, 607, 610, 613, 616, 619, 622, 625, 628,
                  631, 634, 637, 640, 643, 646, 649, 652, 655, 658, 661, 664,
                  667, 670, 673, 676, 679, 682, 685, 688, 691, 694, 697, 700,
                  703, 706, 709, 712, 715, 718, 721, 724, 727, 730, 733, 736,
                  739, 742, 745, 748, 751, 754
    2    1 h      2, 3, 5, 6, 8, 9, 11, 12, 14, 15, 17, 18, 20, 21, 23, 24,
                  26, 27, 29, 30, 32, 33, 35, 36, 38, 39, 41, 42, 44, 45, 47,
                  48, 50, 51, 53, 54, 56, 57, 59, 60, 62, 63, 65, 66, 68, 69,
                  71, 72, 74, 75, 77, 78, 80, 81, 83, 84, 86, 87, 89, 90, 92,
                  93, 95, 96, 98, 99, 101, 102, 104, 105, 107, 108, 110, 111,
                  113, 114, 116, 117, 119, 120, 122, 123, 125, 126, 128, 129,
                  131, 132, 134, 135, 137, 138, 140, 141, 143, 144, 146, 147,
                  149, 150, 152, 153, 155, 156, 158, 159, 161, 162, 164, 165,
                  167, 168, 170, 171, 173, 174, 176, 177, 179, 180, 182, 183,
                  185, 186, 188, 189, 191, 192, 194, 195, 197, 198, 200, 201,
                  203, 204, 206, 207, 209, 210, 212, 213, 215, 216, 218, 219,
                  221, 222, 224, 225, 227, 228, 230, 231, 233, 234, 236, 237,
                  239, 240, 242, 243, 245, 246, 248, 249, 251, 252, 254, 255,
                  257, 258, 260, 261, 263, 264, 266, 267, 269, 270, 272, 273,
                  275, 276, 278, 279, 281, 282, 284, 285, 287, 288, 290, 291,
                  293, 294, 296, 297, 299, 300, 302, 303, 305, 306, 308, 309,
                  311, 312, 314, 315, 317, 318, 320, 321, 323, 324, 326, 327,
                  329, 330, 332, 333, 335, 336, 338, 339, 341, 342, 344, 345,
                  347, 348, 350, 351, 353, 354, 356, 357, 359, 360, 362, 363,
                  365, 366, 368, 369, 371, 372, 374, 375, 377, 378, 380, 381,
                  383, 384, 386, 387, 389, 390, 392, 393, 395, 396, 398, 399,
                  401, 402, 404, 405, 407, 408, 410, 411, 413, 414, 416, 417,
                  419, 420, 422, 423, 425, 426, 428, 429, 431, 432, 434, 435,
                  437, 438, 440, 441, 443, 444, 446, 447, 449, 450, 452, 453,
                  455, 456, 458, 459, 461, 462, 464, 465, 467, 468, 470, 471,
                  473, 474, 476, 477, 479, 480, 482, 483, 485, 486, 488, 489,
                  491, 492, 494, 495, 497, 498, 500, 501, 503, 504, 506, 507,
                  509, 510, 512, 513, 515, 516, 518, 519, 521, 522, 524, 525,
                  527, 528, 530, 531, 533, 534, 536, 537, 539, 540, 542, 543,
                  545, 546, 548, 549, 551, 552, 554, 555, 557, 558, 560, 561,
                  563, 564, 566, 567, 569, 570, 572, 573, 575, 576, 578, 579,
                  581, 582, 584, 585, 587, 588, 590, 591, 593, 594, 596, 597,
                  599, 600, 602, 603, 605, 606, 608, 609, 611, 612, 614, 615,
                  617, 618, 620, 621, 623, 624, 626, 627, 629, 630, 632, 633,
                  635, 636, 638, 639, 641, 642, 644, 645, 647, 648, 650, 651,
                  653, 654, 656, 657, 659, 660, 662, 663, 665, 666, 668, 669,
                  671, 672, 674, 675, 677, 678, 680, 681, 683, 684, 686, 687,
                  689, 690, 692, 693, 695, 696, 698, 699, 701, 702, 704, 705,
                  707, 708, 710, 711, 713, 714, 716, 717, 719, 720, 722, 723,
                  725, 726, 728, 729, 731, 732, 734, 735, 737, 738, 740, 741,
                  743, 744, 746, 747, 749, 750, 752, 753, 755, 756

molecular fragmentation (1/2 indicates fragments):
111222222222222222222222222222222222222222222222222222222222222222222222
222222222222222222222222222222222222222222222222222222222222222222222222
222222222222222222222222222222222222222222222222222222222222222222222222
222222222222222222222222222222222222222222222222222222222222222222222222
222222222222222222222222222222222222222222222222222222222222222222222222
222222222222222222222222222222222222222222222222222222222222222222222222
222222222222222222222222222222222222222222222222222222222222222222222222
222222222222222222222222222222222222222222222222222222222222222222222222
222222222222222222222222222222222222222222222222222222222222222222222222
222222222222222222222222222222222222222222222222222222222222222222222222
222222222222222222222222222222222222
# atoms in fragment 1/2:     3   753
 fragment masses (1/2) :       18.02     4521.84
CMA distance (Bohr)    :  16.552
constraining FC (au)   :  0.0500

           -------------------------------------------------
          |                 G F N 2 - x T B                 |
           -------------------------------------------------

        Reference                      10.1021/acs.jctc.8b01176
      * Hamiltonian:
        H0-scaling (s, p, d)           1.850000    2.230000    2.230000
        zeta-weighting                 0.500000
      * Dispersion:
        s8                             2.700000
        a1                             0.520000
        a2                             5.000000
        s9                             5.000000
      * Repulsion:
        kExp                           1.500000    1.000000
        rExp                           1.000000
      * Coulomb:
        alpha                          2.000000
        third order                    shell-resolved
        anisotropic                    true
        a3                             3.000000
        a5                             4.000000
        cn-shift                       1.200000
        cn-exp                         4.000000
        max-rad                        5.000000

      * Solvation model:               GBSA
        Solvent                        water
        Parameter file                 internal GFN2-xTB/GBSA
        Dielectric constant                8.0200E+01
        Reference state                gsolv [1 M gas/solution]
        Free energy shift                  1.8574E-03 Eh       1.1656E+00 kcal/mol
        Temperature                        2.9815E+02 K
        Density                            1.0000E+00 kg/L
        Solvent mass                       1.8000E+01 g/mol
        Interaction kernel             Still
        Born radius scaling (c1)           1.5524E+00
        Born radii integrator          GBOBC
        Born offset                        2.4628E-02 a0       4.6540E-02 AA
        H-bond correction              true
        Ion screening                  false
        Surface tension                    1.0000E-05 Eh       1.5569E+01 dyn/cm
        Grid points                               230 per atom

          ...................................................
          :                      SETUP                      :
          :.................................................:
          :  # basis functions                1512          :
          :  # atomic orbitals                1512          :
          :  # shells                         1008          :
          :  # electrons                      2016          :
          :  max. iterations                   250          :
          :  Hamiltonian                  GFN2-xTB          :
          :  restarted?                      false          :
          :  GBSA solvation                   true          :
          :  PC potential                    false          :
          :  electronic temp.          300.0000000     K    :
          :  accuracy                    1.0000000          :
          :  -> integral cutoff          0.2500000E+02      :
          :  -> integral neglect         0.1000000E-07      :
          :  -> SCF convergence          0.1000000E-05 Eh   :
          :  -> wf. convergence          0.1000000E-03 e    :
          :  Broyden damping             0.4000000          :
          ...................................................

 iter      E             dE          RMSdq      gap      omega  full diag
   1  -1291.2777639 -0.129128E+04  0.409E+00    8.35       0.0  T
   2  -1291.3608269 -0.830630E-01  0.242E+00    8.18       1.0  T
   3  -1291.3966336 -0.358067E-01  0.225E-01    7.82       1.0  T
   4  -1291.4020710 -0.543747E-02  0.483E-02    7.93       1.0  T
   5  -1291.4022282 -0.157173E-03  0.309E-02    7.91       1.0  T
   6  -1291.4022797 -0.514640E-04  0.385E-03    7.90       1.0  T
   7  -1291.4022814 -0.173791E-05  0.979E-04    7.89       3.7  T
   8  -1291.4022815 -0.129162E-06  0.467E-04    7.89       7.8  T
   9  -1291.4022816 -0.383475E-07  0.138E-04    7.89      26.4  T

   *** convergence criteria satisfied after 9 iterations ***

         #    Occupation            Energy/Eh            Energy/eV
      -------------------------------------------------------------
         1        2.0000           -0.6539487             -17.7949
       ...           ...                  ...                  ...
      1002        2.0000           -0.3563089              -9.6957
      1003        2.0000           -0.3552129              -9.6658
      1004        2.0000           -0.3544812              -9.6459
      1005        2.0000           -0.3527856              -9.5998
      1006        2.0000           -0.3503971              -9.5348
      1007        2.0000           -0.3499637              -9.5230
      1008        2.0000           -0.3486778              -9.4880 (HOMO)
      1009                         -0.0586234              -1.5952 (LUMO)
      1010                         -0.0508279              -1.3831
      1011                         -0.0399228              -1.0864
      1012                         -0.0380527              -1.0355
      1013                         -0.0330188              -0.8985
       ...                                ...                  ...
      1512                          0.4913957              13.3716
      -------------------------------------------------------------
                  HL-Gap            0.2900544 Eh            7.8928 eV
             Fermi-level           -0.2036506 Eh           -5.5416 eV

 SCC (total)                   0 d,  0 h,  0 min, 21.404 sec
 SCC setup                      ...        0 min,  0.117 sec (  0.546%)
 Dispersion                     ...        0 min,  0.111 sec (  0.518%)
 classical contributions        ...        0 min,  0.023 sec (  0.109%)
 integral evaluation            ...        0 min,  0.620 sec (  2.897%)
 iterations                     ...        0 min,  8.094 sec ( 37.813%)
 molecular gradient             ...        0 min, 12.371 sec ( 57.797%)
 printout                       ...        0 min,  0.068 sec (  0.320%)

         :::::::::::::::::::::::::::::::::::::::::::::::::::::
         ::                     SUMMARY                     ::
         :::::::::::::::::::::::::::::::::::::::::::::::::::::
         :: total energy           -1283.601507313823 Eh    ::
         :: total w/o Gsasa/hb     -1283.384927775904 Eh    ::
         :: gradient norm              0.102859572814 Eh/a0 ::
         :: HOMO-LUMO gap              7.892782174927 eV    ::
         ::.................................................::
         :: SCC energy             -1291.402281565444 Eh    ::
         :: -> isotropic ES            7.352519992449 Eh    ::
         :: -> anisotropic ES         -1.650644122542 Eh    ::
         :: -> anisotropic XC         -0.119145130362 Eh    ::
         :: -> dispersion             -0.796554189696 Eh    ::
         :: -> Gsolv                  -0.278556052703 Eh    ::
         ::    -> Gelec               -0.061976514785 Eh    ::
         ::    -> Gsasa                0.008737522916 Eh    ::
         ::    -> Ghb                 -0.227174503961 Eh    ::
         ::    -> Gshift               0.001857443127 Eh    ::
         :: repulsion energy           7.642197157365 Eh    ::
         :: add. restraining           0.000000000000 Eh    ::
         :: total charge               0.000000000000 e     ::
         :::::::::::::::::::::::::::::::::::::::::::::::::::::

           -------------------------------------------------
          |                Property Printout                |
           -------------------------------------------------

    * Orbital Energies and Occupations

         #    Occupation            Energy/Eh            Energy/eV
      -------------------------------------------------------------
         1        2.0000           -0.6539487             -17.7949
       ...           ...                  ...                  ...
       996        2.0000           -0.3596679              -9.7871
       997        2.0000           -0.3581521              -9.7458
       998        2.0000           -0.3577290              -9.7343
       999        2.0000           -0.3576097              -9.7311
      1000        2.0000           -0.3575041              -9.7282
      1001        2.0000           -0.3572278              -9.7207
      1002        2.0000           -0.3563089              -9.6957
      1003        2.0000           -0.3552129              -9.6658
      1004        2.0000           -0.3544812              -9.6459
      1005        2.0000           -0.3527856              -9.5998
      1006        2.0000           -0.3503971              -9.5348
      1007        2.0000           -0.3499637              -9.5230
      1008        2.0000           -0.3486778              -9.4880 (HOMO)
      1009                         -0.0586234              -1.5952 (LUMO)
      1010                         -0.0508279              -1.3831
      1011                         -0.0399228              -1.0864
      1012                         -0.0380527              -1.0355
      1013                         -0.0330188              -0.8985
      1014                         -0.0266907              -0.7263
      1015                         -0.0227622              -0.6194
      1016                         -0.0157274              -0.4280
      1017                         -0.0149749              -0.4075
      1018                         -0.0085595              -0.2329
      1019                         -0.0040062              -0.1090
       ...                                ...                  ...
      1512                          0.4913957              13.3716
      -------------------------------------------------------------
                  HL-Gap            0.2900544 Eh            7.8928 eV
             Fermi-level           -0.2036506 Eh           -5.5416 eV

     #   Z          covCN         q      C6AA      α(0)
     1   8 o        1.608    -0.685    27.309     7.053
     2   1 h        0.803     0.354     0.580     1.197
     3   1 h        0.805     0.323     0.655     1.271
     4   8 o        1.607    -0.698    27.645     7.096
     5   1 h        0.803     0.343     0.605     1.222
     6   1 h        0.804     0.349     0.590     1.207
     7   8 o        1.609    -0.695    27.570     7.087
     8   1 h        0.804     0.345     0.600     1.217
     9   1 h        0.804     0.347     0.594     1.211
    10   8 o        1.607    -0.691    27.464     7.073
    11   1 h        0.804     0.342     0.608     1.225
    12   1 h        0.803     0.355     0.576     1.192
    13   8 o        1.608    -0.679    27.156     7.033
    14   1 h        0.804     0.342     0.607     1.224
    15   1 h        0.804     0.354     0.578     1.194
    16   8 o        1.607    -0.682    27.232     7.043
    17   1 h        0.804     0.332     0.633     1.250
    18   1 h        0.803     0.356     0.574     1.190
    19   8 o        1.604    -0.722    28.295     7.179
    20   1 h        0.802     0.352     0.585     1.201
    21   1 h        0.802     0.356     0.575     1.192
    22   8 o        1.608    -0.687    27.360     7.060
    23   1 h        0.804     0.349     0.590     1.206
    24   1 h        0.804     0.357     0.573     1.189
    25   8 o        1.608    -0.679    27.160     7.034
    26   1 h        0.803     0.354     0.580     1.197
    27   1 h        0.805     0.352     0.583     1.200
    28   8 o        1.609    -0.680    27.185     7.037
    29   1 h        0.804     0.360     0.565     1.181
    30   1 h        0.804     0.357     0.571     1.187
    31   8 o        1.608    -0.701    27.735     7.108
    32   1 h        0.804     0.342     0.608     1.225
    33   1 h        0.804     0.356     0.575     1.192
    34   8 o        1.605    -0.719    28.221     7.170
    35   1 h        0.803     0.361     0.563     1.179
    36   1 h        0.803     0.357     0.572     1.189
    37   8 o        1.609    -0.676    27.091     7.025
    38   1 h        0.805     0.340     0.611     1.228
    39   1 h        0.804     0.325     0.650     1.267
    40   8 o        1.610    -0.675    27.054     7.020
    41   1 h        0.805     0.338     0.616     1.233
    42   1 h        0.804     0.339     0.614     1.231
    43   8 o        1.608    -0.692    27.491     7.076
    44   1 h        0.804     0.346     0.597     1.214
    45   1 h        0.804     0.348     0.593     1.210
    46   8 o        1.607    -0.691    27.483     7.075
    47   1 h        0.804     0.328     0.643     1.260
    48   1 h        0.803     0.351     0.586     1.203
    49   8 o        1.605    -0.711    28.000     7.142
    50   1 h        0.803     0.341     0.611     1.228
    51   1 h        0.802     0.353     0.582     1.199
    52   8 o        1.607    -0.679    27.159     7.034
    53   1 h        0.805     0.328     0.643     1.260
    54   1 h        0.803     0.339     0.616     1.233
    55   8 o        1.607    -0.696    27.617     7.093
    56   1 h        0.803     0.347     0.595     1.212
    57   1 h        0.804     0.358     0.571     1.187
    58   8 o        1.607    -0.689    27.431     7.069
    59   1 h        0.804     0.344     0.603     1.220
    60   1 h        0.803     0.357     0.573     1.189
    61   8 o        1.607    -0.698    27.667     7.099
    62   1 h        0.803     0.346     0.597     1.214
    63   1 h        0.803     0.339     0.616     1.233
    64   8 o        1.606    -0.702    27.772     7.112
    65   1 h        0.803     0.360     0.566     1.182
    66   1 h        0.804     0.338     0.618     1.235
    67   8 o        1.607    -0.703    27.804     7.117
    68   1 h        0.803     0.351     0.585     1.201
    69   1 h        0.804     0.343     0.605     1.222
    70   8 o        1.601    -0.688    27.407     7.065
    71   1 h        0.803     0.354     0.579     1.195
    72   1 h        0.798     0.357     0.573     1.190
    73   8 o        1.608    -0.687    27.356     7.059
    74   1 h        0.804     0.334     0.628     1.245
    75   1 h        0.804     0.336     0.623     1.240
    76   8 o        1.607    -0.693    27.516     7.080
    77   1 h        0.804     0.341     0.609     1.226
    78   1 h        0.804     0.356     0.575     1.192
    79   8 o        1.607    -0.693    27.525     7.081
    80   1 h        0.804     0.345     0.600     1.217
    81   1 h        0.803     0.353     0.582     1.198
    82   8 o        1.607    -0.699    27.684     7.101
    83   1 h        0.805     0.324     0.652     1.269
    84   1 h        0.803     0.358     0.569     1.185
    85   8 o        1.608    -0.673    26.992     7.012
    86   1 h        0.804     0.322     0.660     1.276
    87   1 h        0.804     0.357     0.572     1.188
    88   8 o        1.608    -0.684    27.296     7.051
    89   1 h        0.803     0.362     0.562     1.178
    90   1 h        0.805     0.342     0.608     1.225
    91   8 o        1.603    -0.707    27.893     7.128
    92   1 h        0.803     0.333     0.631     1.247
    93   1 h        0.801     0.367     0.551     1.166
    94   8 o        1.610    -0.678    27.143     7.032
    95   1 h        0.804     0.327     0.645     1.261
    96   1 h        0.804     0.360     0.566     1.182
    97   8 o        1.606    -0.697    27.641     7.096
    98   1 h        0.804     0.325     0.650     1.266
    99   1 h        0.802     0.353     0.581     1.197
   100   8 o        1.607    -0.690    27.452     7.071
   101   1 h        0.803     0.345     0.600     1.217
   102   1 h        0.804     0.358     0.569     1.185
   103   8 o        1.610    -0.678    27.126     7.029
   104   1 h        0.804     0.356     0.575     1.191
   105   1 h        0.805     0.339     0.613     1.230
   106   8 o        1.608    -0.679    27.148     7.032
   107   1 h        0.804     0.348     0.592     1.209
   108   1 h        0.803     0.348     0.593     1.210
   109   8 o        1.609    -0.679    27.166     7.034
   110   1 h        0.804     0.338     0.616     1.233
   111   1 h        0.805     0.335     0.625     1.242
   112   8 o        1.608    -0.677    27.094     7.025
   113   1 h        0.804     0.355     0.577     1.193
   114   1 h        0.804     0.337     0.619     1.236
   115   8 o        1.609    -0.692    27.494     7.077
   116   1 h        0.804     0.346     0.597     1.213
   117   1 h        0.804     0.342     0.608     1.224
   118   8 o        1.602    -0.731    28.549     7.211
   119   1 h        0.802     0.361     0.565     1.180
   120   1 h        0.802     0.374     0.535     1.149
   121   8 o        1.605    -0.710    27.987     7.140
   122   1 h        0.802     0.366     0.554     1.169
   123   1 h        0.803     0.332     0.632     1.249
   124   8 o        1.608    -0.696    27.601     7.091
   125   1 h        0.804     0.351     0.586     1.202
   126   1 h        0.804     0.362     0.562     1.178
   127   8 o        1.608    -0.691    27.485     7.076
   128   1 h        0.803     0.348     0.592     1.209
   129   1 h        0.803     0.355     0.577     1.193
   130   8 o        1.607    -0.665    26.807     6.988
   131   1 h        0.806     0.308     0.697     1.312
   132   1 h        0.802     0.349     0.592     1.209
   133   8 o        1.608    -0.663    26.739     6.979
   134   1 h        0.803     0.347     0.594     1.211
   135   1 h        0.804     0.337     0.621     1.237
   136   8 o        1.611    -0.694    27.548     7.084
   137   1 h        0.803     0.353     0.581     1.198
   138   1 h        0.805     0.356     0.575     1.191
   139   8 o        1.607    -0.695    27.578     7.088
   140   1 h        0.803     0.348     0.594     1.211
   141   1 h        0.804     0.361     0.564     1.179
   142   8 o        1.609    -0.664    26.781     6.984
   143   1 h        0.804     0.315     0.678     1.294
   144   1 h        0.804     0.339     0.615     1.232
   145   8 o        1.606    -0.679    27.156     7.033
   146   1 h        0.804     0.336     0.622     1.239
   147   1 h        0.803     0.327     0.645     1.261
   148   8 o        1.609    -0.675    27.042     7.018
   149   1 h        0.804     0.364     0.557     1.172
   150   1 h        0.804     0.331     0.635     1.252
   151   8 o        1.608    -0.664    26.771     6.983
   152   1 h        0.803     0.360     0.565     1.180
   153   1 h        0.805     0.322     0.659     1.275
   154   8 o        1.608    -0.689    27.407     7.066
   155   1 h        0.804     0.343     0.604     1.221
   156   1 h        0.804     0.346     0.598     1.215
   157   8 o        1.609    -0.671    26.958     7.008
   158   1 h        0.805     0.333     0.631     1.247
   159   1 h        0.804     0.331     0.635     1.251
   160   8 o        1.605    -0.698    27.656     7.098
   161   1 h        0.803     0.318     0.669     1.285
   162   1 h        0.802     0.365     0.554     1.169
   163   8 o        1.608    -0.714    28.090     7.153
   164   1 h        0.804     0.350     0.588     1.205
   165   1 h        0.804     0.336     0.621     1.238
   166   8 o        1.609    -0.686    27.332     7.056
   167   1 h        0.804     0.344     0.604     1.220
   168   1 h        0.805     0.329     0.641     1.257
   169   8 o        1.605    -0.703    27.802     7.116
   170   1 h        0.803     0.351     0.587     1.203
   171   1 h        0.802     0.359     0.568     1.184
   172   8 o        1.608    -0.690    27.453     7.072
   173   1 h        0.804     0.346     0.598     1.214
   174   1 h        0.804     0.355     0.577     1.194
   175   8 o        1.605    -0.691    27.464     7.073
   176   1 h        0.804     0.329     0.639     1.255
   177   1 h        0.801     0.343     0.604     1.221
   178   8 o        1.607    -0.679    27.161     7.034
   179   1 h        0.805     0.326     0.649     1.265
   180   1 h        0.802     0.364     0.557     1.172
   181   8 o        1.607    -0.689    27.426     7.068
   182   1 h        0.803     0.351     0.585     1.202
   183   1 h        0.803     0.343     0.606     1.223
   184   8 o        1.607    -0.696    27.615     7.092
   185   1 h        0.803     0.353     0.581     1.197
   186   1 h        0.804     0.351     0.586     1.203
   187   8 o        1.609    -0.675    27.053     7.020
   188   1 h        0.804     0.337     0.618     1.235
   189   1 h        0.804     0.330     0.638     1.255
   190   8 o        1.609    -0.657    26.591     6.960
   191   1 h        0.805     0.331     0.634     1.251
   192   1 h        0.804     0.335     0.625     1.242
   193   8 o        1.607    -0.678    27.143     7.032
   194   1 h        0.806     0.310     0.691     1.306
   195   1 h        0.802     0.361     0.563     1.179
   196   8 o        1.610    -0.663    26.752     6.981
   197   1 h        0.805     0.342     0.606     1.223
   198   1 h        0.805     0.346     0.597     1.214
   199   8 o        1.610    -0.670    26.935     7.005
   200   1 h        0.804     0.322     0.660     1.276
   201   1 h        0.804     0.349     0.591     1.207
   202   8 o        1.609    -0.681    27.210     7.040
   203   1 h        0.805     0.316     0.674     1.290
   204   1 h        0.804     0.356     0.575     1.191
   205   8 o        1.608    -0.669    26.907     7.001
   206   1 h        0.805     0.318     0.669     1.285
   207   1 h        0.803     0.344     0.602     1.219
   208   8 o        1.608    -0.664    26.779     6.984
   209   1 h        0.802     0.369     0.545     1.160
   210   1 h        0.805     0.307     0.699     1.314
   211   8 o        1.606    -0.699    27.696     7.103
   212   1 h        0.803     0.332     0.632     1.249
   213   1 h        0.803     0.359     0.569     1.185
   214   8 o        1.608    -0.675    27.045     7.019
   215   1 h        0.803     0.360     0.566     1.181
   216   1 h        0.805     0.334     0.626     1.243
   217   8 o        1.609    -0.679    27.150     7.032
   218   1 h        0.804     0.359     0.569     1.184
   219   1 h        0.803     0.337     0.619     1.236
   220   8 o        1.608    -0.676    27.085     7.024
   221   1 h        0.803     0.350     0.588     1.205
   222   1 h        0.804     0.321     0.661     1.277
   223   8 o        1.608    -0.652    26.475     6.944
   224   1 h        0.803     0.343     0.605     1.222
   225   1 h        0.805     0.326     0.648     1.264
   226   8 o        1.607    -0.686    27.353     7.059
   227   1 h        0.803     0.364     0.558     1.173
   228   1 h        0.804     0.321     0.660     1.276
   229   8 o        1.609    -0.692    27.511     7.079
   230   1 h        0.804     0.364     0.557     1.172
   231   1 h        0.805     0.344     0.603     1.220
   232   8 o        1.609    -0.686    27.333     7.056
   233   1 h        0.804     0.355     0.576     1.192
   234   1 h        0.805     0.316     0.675     1.290
   235   8 o        1.609    -0.654    26.523     6.951
   236   1 h        0.805     0.336     0.622     1.239
   237   1 h        0.804     0.339     0.615     1.232
   238   8 o        1.609    -0.673    26.993     7.012
   239   1 h        0.804     0.332     0.633     1.250
   240   1 h        0.805     0.332     0.632     1.249
   241   8 o        1.610    -0.664    26.759     6.982
   242   1 h        0.805     0.332     0.633     1.250
   243   1 h        0.805     0.335     0.624     1.240
   244   8 o        1.608    -0.664    26.764     6.982
   245   1 h        0.805     0.320     0.662     1.278
   246   1 h        0.803     0.348     0.593     1.209
   247   8 o        1.609    -0.677    27.113     7.028
   248   1 h        0.804     0.336     0.621     1.238
   249   1 h        0.804     0.331     0.634     1.250
   250   8 o        1.609    -0.665    26.798     6.987
   251   1 h        0.804     0.338     0.617     1.234
   252   1 h        0.804     0.335     0.625     1.241
   253   8 o        1.607    -0.693    27.526     7.081
   254   1 h        0.804     0.339     0.615     1.231
   255   1 h        0.803     0.351     0.587     1.203
   256   8 o        1.607    -0.688    27.404     7.065
   257   1 h        0.802     0.360     0.565     1.181
   258   1 h        0.805     0.348     0.594     1.210
   259   8 o        1.608    -0.675    27.046     7.019
   260   1 h        0.803     0.328     0.643     1.260
   261   1 h        0.804     0.352     0.584     1.200
   262   8 o        1.608    -0.655    26.546     6.954
   263   1 h        0.805     0.335     0.623     1.240
   264   1 h        0.803     0.327     0.644     1.261
   265   8 o        1.607    -0.705    27.839     7.121
   266   1 h        0.804     0.338     0.616     1.233
   267   1 h        0.803     0.340     0.612     1.229
   268   8 o        1.609    -0.676    27.082     7.024
   269   1 h        0.804     0.342     0.608     1.225
   270   1 h        0.804     0.327     0.646     1.262
   271   8 o        1.607    -0.681    27.213     7.041
   272   1 h        0.803     0.332     0.634     1.250
   273   1 h        0.803     0.355     0.578     1.194
   274   8 o        1.607    -0.677    27.096     7.025
   275   1 h        0.804     0.336     0.621     1.238
   276   1 h        0.804     0.348     0.592     1.209
   277   8 o        1.607    -0.681    27.207     7.040
   278   1 h        0.804     0.326     0.647     1.264
   279   1 h        0.803     0.343     0.604     1.221
   280   8 o        1.608    -0.655    26.544     6.954
   281   1 h        0.806     0.309     0.694     1.309
   282   1 h        0.803     0.350     0.589     1.206
   283   8 o        1.606    -0.690    27.446     7.071
   284   1 h        0.803     0.335     0.624     1.241
   285   1 h        0.803     0.350     0.588     1.204
   286   8 o        1.608    -0.669    26.903     7.000
   287   1 h        0.805     0.343     0.606     1.223
   288   1 h        0.804     0.357     0.571     1.187
   289   8 o        1.606    -0.710    27.977     7.139
   290   1 h        0.803     0.362     0.562     1.178
   291   1 h        0.804     0.353     0.582     1.199
   292   8 o        1.604    -0.708    27.938     7.134
   293   1 h        0.804     0.325     0.649     1.266
   294   1 h        0.802     0.369     0.545     1.160
   295   8 o        1.606    -0.667    26.853     6.994
   296   1 h        0.803     0.328     0.644     1.260
   297   1 h        0.803     0.330     0.637     1.254
   298   8 o        1.607    -0.693    27.529     7.081
   299   1 h        0.803     0.349     0.592     1.208
   300   1 h        0.805     0.343     0.606     1.223
   301   8 o        1.607    -0.702    27.759     7.111
   302   1 h        0.804     0.348     0.594     1.210
   303   1 h        0.804     0.334     0.626     1.243
   304   8 o        1.609    -0.674    27.016     7.015
   305   1 h        0.805     0.323     0.656     1.272
   306   1 h        0.804     0.365     0.555     1.171
   307   8 o        1.607    -0.684    27.290     7.051
   308   1 h        0.804     0.327     0.646     1.263
   309   1 h        0.804     0.353     0.582     1.198
   310   8 o        1.609    -0.675    27.053     7.020
   311   1 h        0.804     0.349     0.590     1.207
   312   1 h        0.805     0.320     0.665     1.281
   313   8 o        1.609    -0.664    26.780     6.984
   314   1 h        0.804     0.342     0.607     1.224
   315   1 h        0.805     0.328     0.644     1.260
   316   8 o        1.607    -0.684    27.279     7.049
   317   1 h        0.803     0.337     0.619     1.236
   318   1 h        0.804     0.329     0.640     1.257
   319   8 o        1.605    -0.682    27.235     7.043
   320   1 h        0.803     0.353     0.582     1.198
   321   1 h        0.803     0.341     0.610     1.227
   322   8 o        1.607    -0.704    27.820     7.119
   323   1 h        0.804     0.328     0.642     1.258
   324   1 h        0.803     0.362     0.561     1.176
   325   8 o        1.606    -0.668    26.882     6.998
   326   1 h        0.802     0.335     0.626     1.243
   327   1 h        0.805     0.350     0.589     1.205
   328   8 o        1.607    -0.700    27.716     7.105
   329   1 h        0.803     0.364     0.558     1.173
   330   1 h        0.804     0.328     0.642     1.259
   331   8 o        1.607    -0.660    26.663     6.969
   332   1 h        0.802     0.345     0.601     1.218
   333   1 h        0.805     0.315     0.678     1.293
   334   8 o        1.606    -0.681    27.210     7.040
   335   1 h        0.804     0.325     0.650     1.266
   336   1 h        0.802     0.363     0.559     1.175
   337   8 o        1.608    -0.701    27.738     7.108
   338   1 h        0.803     0.353     0.581     1.197
   339   1 h        0.804     0.335     0.624     1.241
   340   8 o        1.610    -0.666    26.828     6.991
   341   1 h        0.805     0.333     0.630     1.247
   342   1 h        0.805     0.344     0.602     1.219
   343   8 o        1.607    -0.669    26.900     7.000
   344   1 h        0.803     0.328     0.643     1.260
   345   1 h        0.803     0.361     0.564     1.180
   346   8 o        1.607    -0.693    27.514     7.079
   347   1 h        0.803     0.349     0.590     1.207
   348   1 h        0.804     0.344     0.602     1.219
   349   8 o        1.607    -0.668    26.885     6.998
   350   1 h        0.804     0.328     0.643     1.259
   351   1 h        0.803     0.327     0.647     1.263
   352   8 o        1.607    -0.690    27.459     7.072
   353   1 h        0.805     0.327     0.645     1.262
   354   1 h        0.802     0.359     0.568     1.184
   355   8 o        1.608    -0.670    26.913     7.002
   356   1 h        0.803     0.357     0.573     1.190
   357   1 h        0.805     0.311     0.689     1.304
   358   8 o        1.606    -0.693    27.533     7.082
   359   1 h        0.803     0.362     0.562     1.177
   360   1 h        0.803     0.340     0.612     1.229
   361   8 o        1.609    -0.680    27.172     7.035
   362   1 h        0.803     0.342     0.608     1.225
   363   1 h        0.805     0.314     0.680     1.296
   364   8 o        1.606    -0.683    27.263     7.047
   365   1 h        0.802     0.364     0.556     1.171
   366   1 h        0.804     0.340     0.612     1.229
   367   8 o        1.608    -0.685    27.309     7.053
   368   1 h        0.805     0.313     0.684     1.300
   369   1 h        0.803     0.364     0.557     1.173
   370   8 o        1.606    -0.687    27.364     7.060
   371   1 h        0.804     0.357     0.572     1.188
   372   1 h        0.803     0.328     0.643     1.260
   373   8 o        1.609    -0.662    26.717     6.976
   374   1 h        0.806     0.314     0.681     1.296
   375   1 h        0.803     0.358     0.571     1.187
   376   8 o        1.608    -0.687    27.355     7.059
   377   1 h        0.805     0.347     0.596     1.212
   378   1 h        0.802     0.358     0.571     1.187
   379   8 o        1.608    -0.672    26.983     7.011
   380   1 h        0.804     0.337     0.620     1.237
   381   1 h        0.804     0.333     0.631     1.248
   382   8 o        1.609    -0.688    27.392     7.064
   383   1 h        0.804     0.349     0.590     1.207
   384   1 h        0.804     0.348     0.593     1.210
   385   8 o        1.608    -0.676    27.070     7.022
   386   1 h        0.805     0.322     0.660     1.276
   387   1 h        0.803     0.354     0.579     1.195
   388   8 o        1.606    -0.701    27.746     7.109
   389   1 h        0.804     0.331     0.634     1.251
   390   1 h        0.802     0.368     0.549     1.164
   391   8 o        1.609    -0.663    26.750     6.980
   392   1 h        0.804     0.339     0.615     1.231
   393   1 h        0.805     0.337     0.619     1.235
   394   8 o        1.608    -0.674    27.031     7.017
   395   1 h        0.802     0.360     0.567     1.183
   396   1 h        0.804     0.335     0.624     1.241
   397   8 o        1.605    -0.700    27.710     7.104
   398   1 h        0.803     0.352     0.584     1.200
   399   1 h        0.804     0.342     0.607     1.223
   400   8 o        1.608    -0.688    27.404     7.065
   401   1 h        0.804     0.338     0.617     1.234
   402   1 h        0.804     0.325     0.650     1.266
   403   8 o        1.607    -0.692    27.487     7.076
   404   1 h        0.804     0.335     0.625     1.242
   405   1 h        0.804     0.354     0.579     1.195
   406   8 o        1.608    -0.670    26.930     7.004
   407   1 h        0.804     0.346     0.598     1.215
   408   1 h        0.804     0.336     0.621     1.238
   409   8 o        1.604    -0.709    27.963     7.137
   410   1 h        0.802     0.333     0.631     1.248
   411   1 h        0.803     0.361     0.564     1.179
   412   8 o        1.607    -0.678    27.140     7.031
   413   1 h        0.803     0.331     0.636     1.252
   414   1 h        0.803     0.363     0.559     1.174
   415   8 o        1.606    -0.673    27.008     7.014
   416   1 h        0.802     0.333     0.630     1.247
   417   1 h        0.804     0.330     0.638     1.255
   418   8 o        1.607    -0.673    26.999     7.013
   419   1 h        0.802     0.346     0.599     1.215
   420   1 h        0.805     0.324     0.652     1.269
   421   8 o        1.606    -0.676    27.090     7.025
   422   1 h        0.801     0.364     0.556     1.172
   423   1 h        0.806     0.305     0.706     1.319
   424   8 o        1.606    -0.680    27.192     7.038
   425   1 h        0.803     0.332     0.631     1.248
   426   1 h        0.803     0.333     0.631     1.248
   427   8 o        1.606    -0.705    27.833     7.120
   428   1 h        0.803     0.344     0.602     1.219
   429   1 h        0.803     0.366     0.551     1.166
   430   8 o        1.608    -0.683    27.263     7.047
   431   1 h        0.804     0.345     0.599     1.216
   432   1 h        0.804     0.345     0.599     1.216
   433   8 o        1.607    -0.675    27.059     7.021
   434   1 h        0.802     0.343     0.605     1.222
   435   1 h        0.805     0.325     0.650     1.267
   436   8 o        1.608    -0.677    27.111     7.027
   437   1 h        0.803     0.344     0.603     1.220
   438   1 h        0.804     0.343     0.606     1.223
   439   8 o        1.610    -0.685    27.308     7.053
   440   1 h        0.803     0.362     0.562     1.177
   441   1 h        0.804     0.327     0.644     1.261
   442   8 o        1.609    -0.659    26.641     6.966
   443   1 h        0.804     0.333     0.629     1.246
   444   1 h        0.805     0.331     0.635     1.252
   445   8 o        1.608    -0.664    26.779     6.984
   446   1 h        0.802     0.359     0.567     1.183
   447   1 h        0.806     0.316     0.676     1.291
   448   8 o        1.608    -0.687    27.370     7.061
   449   1 h        0.804     0.337     0.621     1.238
   450   1 h        0.804     0.325     0.650     1.266
   451   8 o        1.610    -0.677    27.103     7.026
   452   1 h        0.804     0.364     0.557     1.172
   453   1 h        0.805     0.333     0.630     1.247
   454   8 o        1.609    -0.667    26.837     6.992
   455   1 h        0.805     0.337     0.619     1.236
   456   1 h        0.805     0.334     0.628     1.245
   457   8 o        1.608    -0.692    27.490     7.076
   458   1 h        0.804     0.339     0.614     1.231
   459   1 h        0.804     0.337     0.619     1.235
   460   8 o        1.606    -0.687    27.358     7.059
   461   1 h        0.804     0.327     0.646     1.262
   462   1 h        0.802     0.338     0.617     1.234
   463   8 o        1.608    -0.669    26.906     7.001
   464   1 h        0.803     0.373     0.538     1.152
   465   1 h        0.806     0.313     0.682     1.297
   466   8 o        1.607    -0.684    27.286     7.050
   467   1 h        0.804     0.330     0.636     1.253
   468   1 h        0.803     0.349     0.591     1.208
   469   8 o        1.609    -0.680    27.174     7.036
   470   1 h        0.805     0.343     0.606     1.223
   471   1 h        0.804     0.334     0.627     1.244
   472   8 o        1.607    -0.686    27.340     7.057
   473   1 h        0.805     0.324     0.654     1.270
   474   1 h        0.802     0.359     0.568     1.184
   475   8 o        1.609    -0.653    26.483     6.946
   476   1 h        0.804     0.342     0.606     1.223
   477   1 h        0.805     0.319     0.666     1.282
   478   8 o        1.609    -0.656    26.565     6.956
   479   1 h        0.804     0.340     0.612     1.229
   480   1 h        0.805     0.333     0.628     1.245
   481   8 o        1.607    -0.683    27.250     7.045
   482   1 h        0.803     0.338     0.617     1.234
   483   1 h        0.803     0.365     0.555     1.170
   484   8 o        1.607    -0.683    27.275     7.049
   485   1 h        0.806     0.308     0.696     1.311
   486   1 h        0.802     0.373     0.537     1.151
   487   8 o        1.607    -0.681    27.210     7.040
   488   1 h        0.804     0.341     0.611     1.228
   489   1 h        0.803     0.328     0.644     1.260
   490   8 o        1.608    -0.694    27.554     7.085
   491   1 h        0.803     0.345     0.600     1.217
   492   1 h        0.805     0.339     0.616     1.232
   493   8 o        1.607    -0.694    27.547     7.084
   494   1 h        0.803     0.356     0.575     1.192
   495   1 h        0.805     0.349     0.591     1.208
   496   8 o        1.608    -0.673    27.007     7.014
   497   1 h        0.805     0.348     0.593     1.210
   498   1 h        0.803     0.359     0.568     1.184
   499   8 o        1.609    -0.660    26.657     6.968
   500   1 h        0.805     0.315     0.676     1.292
   501   1 h        0.803     0.348     0.594     1.211
   502   8 o        1.610    -0.650    26.414     6.937
   503   1 h        0.805     0.335     0.625     1.242
   504   1 h        0.805     0.317     0.673     1.289
   505   8 o        1.609    -0.652    26.458     6.942
   506   1 h        0.805     0.327     0.644     1.260
   507   1 h        0.804     0.332     0.631     1.248
   508   8 o        1.608    -0.692    27.501     7.078
   509   1 h        0.804     0.321     0.662     1.278
   510   1 h        0.804     0.357     0.571     1.187
   511   8 o        1.607    -0.680    27.184     7.037
   512   1 h        0.803     0.333     0.629     1.246
   513   1 h        0.803     0.338     0.617     1.234
   514   8 o        1.608    -0.681    27.205     7.040
   515   1 h        0.806     0.311     0.688     1.303
   516   1 h        0.803     0.369     0.547     1.162
   517   8 o        1.609    -0.678    27.137     7.031
   518   1 h        0.804     0.345     0.600     1.217
   519   1 h        0.805     0.331     0.635     1.252
   520   8 o        1.608    -0.676    27.088     7.024
   521   1 h        0.803     0.346     0.599     1.216
   522   1 h        0.805     0.322     0.659     1.275
   523   8 o        1.606    -0.678    27.121     7.029
   524   1 h        0.802     0.370     0.544     1.159
   525   1 h        0.805     0.312     0.685     1.300
   526   8 o        1.606    -0.691    27.473     7.074
   527   1 h        0.805     0.322     0.657     1.273
   528   1 h        0.802     0.357     0.573     1.189
   529   8 o        1.609    -0.684    27.275     7.049
   530   1 h        0.804     0.351     0.585     1.202
   531   1 h        0.803     0.348     0.594     1.210
   532   8 o        1.608    -0.685    27.325     7.055
   533   1 h        0.804     0.332     0.633     1.250
   534   1 h        0.804     0.338     0.616     1.233
   535   8 o        1.608    -0.680    27.193     7.038
   536   1 h        0.805     0.346     0.597     1.213
   537   1 h        0.803     0.334     0.626     1.243
   538   8 o        1.609    -0.678    27.136     7.031
   539   1 h        0.804     0.331     0.635     1.252
   540   1 h        0.805     0.325     0.650     1.267
   541   8 o        1.607    -0.676    27.076     7.023
   542   1 h        0.801     0.348     0.593     1.210
   543   1 h        0.806     0.316     0.675     1.291
   544   8 o        1.608    -0.688    27.387     7.063
   545   1 h        0.804     0.346     0.597     1.214
   546   1 h        0.804     0.342     0.606     1.223
   547   8 o        1.608    -0.679    27.153     7.033
   548   1 h        0.804     0.337     0.619     1.236
   549   1 h        0.804     0.347     0.595     1.212
   550   8 o        1.608    -0.685    27.302     7.052
   551   1 h        0.804     0.341     0.609     1.226
   552   1 h        0.805     0.326     0.648     1.265
   553   8 o        1.608    -0.654    26.527     6.951
   554   1 h        0.803     0.339     0.614     1.231
   555   1 h        0.805     0.329     0.640     1.256
   556   8 o        1.608    -0.656    26.573     6.957
   557   1 h        0.803     0.345     0.600     1.216
   558   1 h        0.805     0.319     0.666     1.282
   559   8 o        1.608    -0.690    27.441     7.070
   560   1 h        0.804     0.339     0.614     1.231
   561   1 h        0.804     0.345     0.600     1.217
   562   8 o        1.608    -0.686    27.350     7.058
   563   1 h        0.804     0.331     0.634     1.251
   564   1 h        0.804     0.321     0.660     1.277
   565   8 o        1.608    -0.684    27.294     7.051
   566   1 h        0.804     0.344     0.602     1.219
   567   1 h        0.804     0.338     0.617     1.234
   568   8 o        1.609    -0.693    27.536     7.082
   569   1 h        0.805     0.328     0.642     1.259
   570   1 h        0.804     0.352     0.584     1.201
   571   8 o        1.609    -0.690    27.458     7.072
   572   1 h        0.804     0.341     0.611     1.228
   573   1 h        0.804     0.339     0.614     1.231
   574   8 o        1.609    -0.666    26.809     6.988
   575   1 h        0.804     0.339     0.616     1.233
   576   1 h        0.805     0.326     0.647     1.263
   577   8 o        1.608    -0.685    27.314     7.054
   578   1 h        0.804     0.352     0.584     1.201
   579   1 h        0.803     0.327     0.646     1.263
   580   8 o        1.608    -0.670    26.913     7.002
   581   1 h        0.805     0.333     0.629     1.246
   582   1 h        0.803     0.339     0.615     1.232
   583   8 o        1.608    -0.690    27.456     7.072
   584   1 h        0.804     0.335     0.625     1.242
   585   1 h        0.804     0.340     0.611     1.228
   586   8 o        1.604    -0.714    28.098     7.154
   587   1 h        0.803     0.329     0.641     1.258
   588   1 h        0.802     0.353     0.582     1.199
   589   8 o        1.610    -0.650    26.421     6.938
   590   1 h        0.804     0.342     0.606     1.223
   591   1 h        0.805     0.328     0.643     1.259
   592   8 o        1.608    -0.676    27.086     7.024
   593   1 h        0.803     0.347     0.597     1.213
   594   1 h        0.804     0.321     0.660     1.276
   595   8 o        1.608    -0.673    27.011     7.014
   596   1 h        0.806     0.310     0.691     1.305
   597   1 h        0.802     0.371     0.542     1.157
   598   8 o        1.608    -0.694    27.562     7.086
   599   1 h        0.804     0.334     0.627     1.244
   600   1 h        0.804     0.354     0.579     1.196
   601   8 o        1.609    -0.687    27.355     7.059
   602   1 h        0.805     0.330     0.638     1.254
   603   1 h        0.804     0.356     0.574     1.190
   604   8 o        1.608    -0.684    27.290     7.051
   605   1 h        0.804     0.327     0.646     1.262
   606   1 h        0.804     0.341     0.609     1.225
   607   8 o        1.609    -0.669    26.909     7.001
   608   1 h        0.804     0.343     0.605     1.222
   609   1 h        0.804     0.338     0.618     1.235
   610   8 o        1.609    -0.663    26.739     6.979
   611   1 h        0.805     0.334     0.626     1.243
   612   1 h        0.805     0.334     0.628     1.245
   613   8 o        1.608    -0.671    26.958     7.008
   614   1 h        0.804     0.323     0.655     1.272
   615   1 h        0.804     0.342     0.607     1.224
   616   8 o        1.605    -0.699    27.696     7.103
   617   1 h        0.803     0.329     0.641     1.258
   618   1 h        0.803     0.346     0.597     1.214
   619   8 o        1.609    -0.678    27.132     7.030
   620   1 h        0.804     0.335     0.623     1.240
   621   1 h        0.804     0.324     0.653     1.269
   622   8 o        1.607    -0.665    26.791     6.986
   623   1 h        0.806     0.312     0.685     1.300
   624   1 h        0.801     0.358     0.571     1.188
   625   8 o        1.603    -0.703    27.791     7.115
   626   1 h        0.801     0.354     0.580     1.197
   627   1 h        0.804     0.322     0.658     1.274
   628   8 o        1.607    -0.667    26.843     6.992
   629   1 h        0.805     0.328     0.641     1.258
   630   1 h        0.802     0.338     0.617     1.234
   631   8 o        1.607    -0.693    27.515     7.080
   632   1 h        0.803     0.345     0.601     1.218
   633   1 h        0.803     0.341     0.611     1.228
   634   8 o        1.608    -0.684    27.284     7.050
   635   1 h        0.804     0.328     0.642     1.259
   636   1 h        0.804     0.340     0.612     1.229
   637   8 o        1.609    -0.652    26.472     6.944
   638   1 h        0.805     0.318     0.670     1.285
   639   1 h        0.803     0.353     0.581     1.197
   640   8 o        1.607    -0.692    27.492     7.077
   641   1 h        0.802     0.354     0.579     1.196
   642   1 h        0.805     0.327     0.646     1.263
   643   8 o        1.609    -0.662    26.718     6.976
   644   1 h        0.804     0.327     0.644     1.261
   645   1 h        0.805     0.330     0.636     1.253
   646   8 o        1.607    -0.688    27.400     7.065
   647   1 h        0.805     0.317     0.672     1.287
   648   1 h        0.802     0.369     0.546     1.161
   649   8 o        1.609    -0.653    26.487     6.946
   650   1 h        0.805     0.330     0.637     1.254
   651   1 h        0.804     0.345     0.599     1.216
   652   8 o        1.608    -0.678    27.134     7.030
   653   1 h        0.803     0.338     0.618     1.235
   654   1 h        0.804     0.339     0.615     1.232
   655   8 o        1.609    -0.674    27.040     7.018
   656   1 h        0.804     0.340     0.611     1.228
   657   1 h        0.805     0.325     0.650     1.266
   658   8 o        1.608    -0.703    27.799     7.116
   659   1 h        0.804     0.343     0.605     1.222
   660   1 h        0.803     0.343     0.605     1.222
   661   8 o        1.608    -0.658    26.606     6.962
   662   1 h        0.805     0.317     0.673     1.289
   663   1 h        0.803     0.343     0.606     1.223
   664   8 o        1.606    -0.703    27.798     7.116
   665   1 h        0.804     0.356     0.574     1.190
   666   1 h        0.803     0.348     0.593     1.209
   667   8 o        1.608    -0.686    27.332     7.056
   668   1 h        0.803     0.335     0.625     1.242
   669   1 h        0.805     0.330     0.638     1.255
   670   8 o        1.609    -0.688    27.393     7.064
   671   1 h        0.804     0.342     0.607     1.224
   672   1 h        0.804     0.337     0.621     1.237
   673   8 o        1.607    -0.685    27.328     7.055
   674   1 h        0.804     0.329     0.639     1.256
   675   1 h        0.803     0.364     0.556     1.171
   676   8 o        1.607    -0.683    27.266     7.047
   677   1 h        0.803     0.364     0.556     1.172
   678   1 h        0.805     0.334     0.627     1.244
   679   8 o        1.608    -0.673    26.993     7.012
   680   1 h        0.803     0.322     0.658     1.274
   681   1 h        0.804     0.346     0.599     1.215
   682   8 o        1.607    -0.714    28.076     7.151
   683   1 h        0.804     0.339     0.614     1.231
   684   1 h        0.803     0.350     0.588     1.205
   685   8 o        1.608    -0.654    26.510     6.949
   686   1 h        0.804     0.334     0.628     1.244
   687   1 h        0.803     0.331     0.636     1.253
   688   8 o        1.608    -0.675    27.061     7.021
   689   1 h        0.804     0.335     0.626     1.243
   690   1 h        0.803     0.349     0.590     1.207
   691   8 o        1.608    -0.674    27.027     7.017
   692   1 h        0.803     0.358     0.570     1.186
   693   1 h        0.805     0.320     0.663     1.279
   694   8 o        1.608    -0.669    26.903     7.000
   695   1 h        0.804     0.357     0.571     1.187
   696   1 h        0.804     0.340     0.613     1.230
   697   8 o        1.609    -0.677    27.102     7.026
   698   1 h        0.805     0.328     0.642     1.258
   699   1 h        0.804     0.344     0.603     1.220
   700   8 o        1.608    -0.655    26.546     6.954
   701   1 h        0.802     0.351     0.586     1.202
   702   1 h        0.806     0.295     0.737     1.348
   703   8 o        1.608    -0.680    27.175     7.036
   704   1 h        0.803     0.351     0.587     1.203
   705   1 h        0.805     0.330     0.638     1.254
   706   8 o        1.608    -0.685    27.325     7.055
   707   1 h        0.804     0.342     0.607     1.224
   708   1 h        0.804     0.337     0.620     1.237
   709   8 o        1.608    -0.669    26.911     7.001
   710   1 h        0.804     0.327     0.645     1.261
   711   1 h        0.804     0.334     0.628     1.245
   712   8 o        1.606    -0.678    27.135     7.030
   713   1 h        0.804     0.329     0.640     1.257
   714   1 h        0.802     0.355     0.577     1.194
   715   8 o        1.608    -0.663    26.757     6.981
   716   1 h        0.803     0.343     0.604     1.221
   717   1 h        0.805     0.322     0.659     1.275
   718   8 o        1.606    -0.659    26.647     6.967
   719   1 h        0.805     0.330     0.637     1.253
   720   1 h        0.802     0.337     0.620     1.237
   721   8 o        1.607    -0.652    26.456     6.942
   722   1 h        0.803     0.336     0.623     1.240
   723   1 h        0.804     0.322     0.659     1.276
   724   8 o        1.608    -0.662    26.719     6.976
   725   1 h        0.804     0.351     0.585     1.202
   726   1 h        0.804     0.325     0.652     1.268
   727   8 o        1.610    -0.669    26.905     7.001
   728   1 h        0.805     0.330     0.638     1.254
   729   1 h        0.805     0.323     0.656     1.272
   730   8 o        1.608    -0.659    26.644     6.967
   731   1 h        0.806     0.318     0.670     1.286
   732   1 h        0.803     0.353     0.582     1.199
   733   8 o        1.609    -0.668    26.868     6.996
   734   1 h        0.803     0.349     0.590     1.207
   735   1 h        0.806     0.308     0.697     1.311
   736   8 o        1.608    -0.651    26.433     6.939
   737   1 h        0.805     0.318     0.669     1.285
   738   1 h        0.803     0.345     0.601     1.218
   739   8 o        1.608    -0.691    27.466     7.073
   740   1 h        0.804     0.360     0.566     1.181
   741   1 h        0.804     0.330     0.637     1.254
   742   8 o        1.606    -0.703    27.783     7.114
   743   1 h        0.802     0.362     0.560     1.176
   744   1 h        0.805     0.320     0.664     1.280
   745   8 o        1.608    -0.690    27.433     7.069
   746   1 h        0.804     0.335     0.625     1.242
   747   1 h        0.805     0.326     0.647     1.264
   748   8 o        1.604    -0.696    27.611     7.092
   749   1 h        0.805     0.357     0.571     1.187
   750   1 h        0.803     0.324     0.652     1.269
   751   8 o        1.610    -0.652    26.462     6.943
   752   1 h        0.804     0.341     0.609     1.226
   753   1 h        0.805     0.325     0.652     1.268
   754   8 o        1.610    -0.645    26.283     6.919
   755   1 h        0.805     0.332     0.632     1.249
   756   1 h        0.805     0.342     0.607     1.224

 Mol. C6AA /au·bohr⁶  :    2900560.523297
 Mol. C8AA /au·bohr⁸  :   52637224.172744
 Mol. α(0) /au        :       2393.420886


Wiberg/Mayer (AO) data.
largest (>0.10) Wiberg bond orders for each atom

 ---------------------------------------------------------------------------
     #   Z sym  total        # sym  WBO       # sym  WBO       # sym  WBO
 ---------------------------------------------------------------------------
     1   8 o    1.829 --     3 h    0.868     2 h    0.803
     2   1 h    0.875 --     1 o    0.803
     3   1 h    0.895 --     1 o    0.868
     4   8 o    1.838 --     5 h    0.816     6 h    0.810
     5   1 h    0.882 --     4 o    0.816
     6   1 h    0.878 --     4 o    0.810
     7   8 o    1.842 --     9 h    0.821     8 h    0.818
     8   1 h    0.881 --     7 o    0.818
     9   1 h    0.879 --     7 o    0.821
    10   8 o    1.857 --    11 h    0.836    12 h    0.796
    11   1 h    0.883 --    10 o    0.836
    12   1 h    0.874 --    10 o    0.796
    13   8 o    1.868 --    14 h    0.827    15 h    0.815
    14   1 h    0.883 --    13 o    0.827
    15   1 h    0.874 --    13 o    0.815
    16   8 o    1.866 --    17 h    0.848    18 h    0.793
    17   1 h    0.890 --    16 o    0.848
    18   1 h    0.873 --    16 o    0.793
    19   8 o    1.825 --    20 h    0.799    21 h    0.795
    20   1 h    0.876 --    19 o    0.799
    21   1 h    0.873 --    19 o    0.795
    22   8 o    1.870 --    24 h    0.818    23 h    0.813
    23   1 h    0.878 --    22 o    0.813
    24   1 h    0.873 --    22 o    0.818
    25   8 o    1.864 --    27 h    0.841    26 h    0.814
    26   1 h    0.875 --    25 o    0.814
    27   1 h    0.876 --    25 o    0.841
    28   8 o    1.876 --    30 h    0.836    29 h    0.812
    29   1 h    0.870 --    28 o    0.812
    30   1 h    0.872 --    28 o    0.836
    31   8 o    1.827 --    32 h    0.820    33 h    0.820
    32   1 h    0.883 --    31 o    0.820
    33   1 h    0.874 --    31 o    0.820
    34   8 o    1.848 --    36 h    0.789    35 h    0.787
    35   1 h    0.870 --    34 o    0.787
    36   1 h    0.872 --    34 o    0.789
    37   8 o    1.807 --    38 h    0.857    39 h    0.845
    38   1 h    0.884 --    37 o    0.857
    39   1 h    0.894 --    37 o    0.845
    40   8 o    1.836 --    41 h    0.838    42 h    0.833
    41   1 h    0.886 --    40 o    0.838
    42   1 h    0.885 --    40 o    0.833
    43   8 o    1.833 --    45 h    0.822    44 h    0.821
    44   1 h    0.880 --    43 o    0.821
    45   1 h    0.879 --    43 o    0.822
    46   8 o    1.842 --    47 h    0.832    48 h    0.809
    47   1 h    0.893 --    46 o    0.832
    48   1 h    0.877 --    46 o    0.809
    49   8 o    1.848 --    50 h    0.807    51 h    0.789
    50   1 h    0.884 --    49 o    0.807
    51   1 h    0.876 --    49 o    0.789
    52   8 o    1.834 --    53 h    0.843    54 h    0.807
    53   1 h    0.893 --    52 o    0.843
    54   1 h    0.885 --    52 o    0.807
    55   8 o    1.847 --    57 h    0.816    56 h    0.811
    56   1 h    0.879 --    55 o    0.811
    57   1 h    0.872 --    55 o    0.816
    58   8 o    1.858 --    59 h    0.828    60 h    0.803
    59   1 h    0.882 --    58 o    0.828
    60   1 h    0.873 --    58 o    0.803
    61   8 o    1.850 --    63 h    0.816    62 h    0.796
    62   1 h    0.880 --    61 o    0.796
    63   1 h    0.885 --    61 o    0.816
    64   8 o    1.857 --    66 h    0.823    65 h    0.776
    65   1 h    0.871 --    64 o    0.776
    66   1 h    0.886 --    64 o    0.823
    67   8 o    1.838 --    69 h    0.818    68 h    0.795
    68   1 h    0.876 --    67 o    0.795
    69   1 h    0.882 --    67 o    0.818
    70   8 o    1.872 --    72 h    0.810    71 h    0.805
    71   1 h    0.875 --    70 o    0.805
    72   1 h    0.873 --    70 o    0.810
    73   8 o    1.815 --    75 h    0.838    74 h    0.837
    74   1 h    0.889 --    73 o    0.837
    75   1 h    0.887 --    73 o    0.838
    76   8 o    1.847 --    77 h    0.836    78 h    0.794
    77   1 h    0.883 --    76 o    0.836
    78   1 h    0.873 --    76 o    0.794
    79   8 o    1.844 --    80 h    0.840    81 h    0.821
    80   1 h    0.881 --    79 o    0.840
    81   1 h    0.875 --    79 o    0.821
    82   8 o    1.806 --    83 h    0.868    84 h    0.777
    83   1 h    0.895 --    82 o    0.868
    84   1 h    0.871 --    82 o    0.777
    85   8 o    1.854 --    86 h    0.848    87 h    0.814
    86   1 h    0.897 --    85 o    0.848
    87   1 h    0.872 --    85 o    0.814
    88   8 o    1.866 --    90 h    0.839    89 h    0.796
    89   1 h    0.869 --    88 o    0.796
    90   1 h    0.883 --    88 o    0.839
    91   8 o    1.860 --    92 h    0.825    93 h    0.763
    92   1 h    0.889 --    91 o    0.825
    93   1 h    0.865 --    91 o    0.763
    94   8 o    1.854 --    95 h    0.844    96 h    0.806
    95   1 h    0.893 --    94 o    0.844
    96   1 h    0.871 --    94 o    0.806
    97   8 o    1.833 --    98 h    0.845    99 h    0.793
    98   1 h    0.894 --    97 o    0.845
    99   1 h    0.875 --    97 o    0.793
   100   8 o    1.852 --   101 h    0.825   102 h    0.808
   101   1 h    0.881 --   100 o    0.825
   102   1 h    0.871 --   100 o    0.808
   103   8 o    1.849 --   105 h    0.857   104 h    0.805
   104   1 h    0.873 --   103 o    0.805
   105   1 h    0.885 --   103 o    0.857
   106   8 o    1.876 --   107 h    0.823   108 h    0.802
   107   1 h    0.879 --   106 o    0.823
   108   1 h    0.879 --   106 o    0.802
   109   8 o    1.831 --   111 h    0.835   110 h    0.833
   110   1 h    0.885 --   109 o    0.833
   111   1 h    0.888 --   109 o    0.835
   112   8 o    1.855 --   114 h    0.846   113 h    0.818
   113   1 h    0.874 --   112 o    0.818
   114   1 h    0.886 --   112 o    0.846
   115   8 o    1.839 --   117 h    0.825   116 h    0.816
   116   1 h    0.880 --   115 o    0.816
   117   1 h    0.883 --   115 o    0.825
   118   8 o    1.853 --   119 h    0.785   120 h    0.758
   119   1 h    0.870 --   118 o    0.785
   120   1 h    0.860 --   118 o    0.758
   121   8 o    1.841 --   123 h    0.826   122 h    0.780
   122   1 h    0.866 --   121 o    0.780
   123   1 h    0.890 --   121 o    0.826
   124   8 o    1.836 --   125 h    0.828   126 h    0.813
   125   1 h    0.877 --   124 o    0.828
   126   1 h    0.869 --   124 o    0.813
   127   8 o    1.880 --   129 h    0.807   128 h    0.803
   128   1 h    0.879 --   127 o    0.803
   129   1 h    0.874 --   127 o    0.807
   130   8 o    1.828 --   131 h    0.898   132 h    0.794
   131   1 h    0.905 --   130 o    0.898
   132   1 h    0.878 --   130 o    0.794
   133   8 o    1.884 --   135 h    0.848   134 h    0.818
   134   1 h    0.879 --   133 o    0.818
   135   1 h    0.887 --   133 o    0.848
   136   8 o    1.872 --   138 h    0.821   137 h    0.786
   137   1 h    0.875 --   136 o    0.786
   138   1 h    0.873 --   136 o    0.821
   139   8 o    1.869 --   140 h    0.815   141 h    0.808
   140   1 h    0.879 --   139 o    0.815
   141   1 h    0.870 --   139 o    0.808
   142   8 o    1.849 --   143 h    0.844   144 h    0.832
   143   1 h    0.901 --   142 o    0.844
   144   1 h    0.885 --   142 o    0.832
   145   8 o    1.854 --   146 h    0.824   147 h    0.813
   146   1 h    0.887 --   145 o    0.824
   147   1 h    0.893 --   145 o    0.813
   148   8 o    1.853 --   150 h    0.850   149 h    0.822
   149   1 h    0.868 --   148 o    0.822
   150   1 h    0.890 --   148 o    0.850
   151   8 o    1.883 --   153 h    0.848   152 h    0.809
   152   1 h    0.870 --   151 o    0.809
   153   1 h    0.896 --   151 o    0.848
   154   8 o    1.846 --   155 h    0.824   156 h    0.810
   155   1 h    0.882 --   154 o    0.824
   156   1 h    0.880 --   154 o    0.810
   157   8 o    1.826 --   158 h    0.855   159 h    0.840
   158   1 h    0.889 --   157 o    0.855
   159   1 h    0.890 --   157 o    0.840
   160   8 o    1.840 --   161 h    0.827   162 h    0.788
   161   1 h    0.899 --   160 o    0.827
   162   1 h    0.866 --   160 o    0.788
   163   8 o    1.794 --   165 h    0.835   164 h    0.822
   164   1 h    0.877 --   163 o    0.822
   165   1 h    0.887 --   163 o    0.835
   166   8 o    1.813 --   168 h    0.846   167 h    0.815
   167   1 h    0.882 --   166 o    0.815
   168   1 h    0.892 --   166 o    0.846
   169   8 o    1.868 --   170 h    0.805   171 h    0.791
   170   1 h    0.877 --   169 o    0.805
   171   1 h    0.871 --   169 o    0.791
   172   8 o    1.847 --   173 h    0.835   174 h    0.801
   173   1 h    0.880 --   172 o    0.835
   174   1 h    0.874 --   172 o    0.801
   175   8 o    1.825 --   176 h    0.854   177 h    0.791
   176   1 h    0.891 --   175 o    0.854
   177   1 h    0.882 --   175 o    0.791
   178   8 o    1.856 --   179 h    0.862   180 h    0.792
   179   1 h    0.894 --   178 o    0.862
   180   1 h    0.868 --   178 o    0.792
   181   8 o    1.857 --   183 h    0.818   182 h    0.817
   182   1 h    0.876 --   181 o    0.817
   183   1 h    0.883 --   181 o    0.818
   184   8 o    1.869 --   186 h    0.826   185 h    0.795
   185   1 h    0.875 --   184 o    0.795
   186   1 h    0.877 --   184 o    0.826
   187   8 o    1.803 --   189 h    0.857   188 h    0.849
   188   1 h    0.886 --   187 o    0.849
   189   1 h    0.891 --   187 o    0.857
   190   8 o    1.840 --   191 h    0.855   192 h    0.852
   191   1 h    0.890 --   190 o    0.855
   192   1 h    0.888 --   190 o    0.852
   193   8 o    1.830 --   194 h    0.893   195 h    0.780
   194   1 h    0.904 --   193 o    0.893
   195   1 h    0.869 --   193 o    0.780
   196   8 o    1.848 --   198 h    0.847   197 h    0.837
   197   1 h    0.883 --   196 o    0.837
   198   1 h    0.880 --   196 o    0.847
   199   8 o    1.856 --   200 h    0.851   201 h    0.807
   200   1 h    0.897 --   199 o    0.851
   201   1 h    0.878 --   199 o    0.807
   202   8 o    1.819 --   203 h    0.862   204 h    0.809
   203   1 h    0.900 --   202 o    0.862
   204   1 h    0.873 --   202 o    0.809
   205   8 o    1.836 --   206 h    0.851   207 h    0.823
   206   1 h    0.899 --   205 o    0.851
   207   1 h    0.881 --   205 o    0.823
   208   8 o    1.854 --   210 h    0.891   209 h    0.786
   209   1 h    0.864 --   208 o    0.786
   210   1 h    0.906 --   208 o    0.891
   211   8 o    1.838 --   212 h    0.824   213 h    0.802
   212   1 h    0.890 --   211 o    0.824
   213   1 h    0.871 --   211 o    0.802
   214   8 o    1.878 --   216 h    0.855   215 h    0.792
   215   1 h    0.870 --   214 o    0.792
   216   1 h    0.888 --   214 o    0.855
   217   8 o    1.879 --   219 h    0.821   218 h    0.807
   218   1 h    0.871 --   217 o    0.807
   219   1 h    0.886 --   217 o    0.821
   220   8 o    1.843 --   222 h    0.846   221 h    0.814
   221   1 h    0.877 --   220 o    0.814
   222   1 h    0.897 --   220 o    0.846
   223   8 o    1.877 --   225 h    0.863   224 h    0.812
   224   1 h    0.882 --   223 o    0.812
   225   1 h    0.894 --   223 o    0.863
   226   8 o    1.854 --   228 h    0.839   227 h    0.806
   227   1 h    0.868 --   226 o    0.806
   228   1 h    0.897 --   226 o    0.839
   229   8 o    1.834 --   231 h    0.843   230 h    0.806
   230   1 h    0.868 --   229 o    0.806
   231   1 h    0.882 --   229 o    0.843
   232   8 o    1.816 --   234 h    0.855   233 h    0.808
   233   1 h    0.874 --   232 o    0.808
   234   1 h    0.900 --   232 o    0.855
   235   8 o    1.860 --   236 h    0.855   237 h    0.832
   236   1 h    0.887 --   235 o    0.855
   237   1 h    0.885 --   235 o    0.832
   238   8 o    1.813 --   240 h    0.860   239 h    0.845
   239   1 h    0.890 --   238 o    0.845
   240   1 h    0.890 --   238 o    0.860
   241   8 o    1.815 --   242 h    0.867   243 h    0.862
   242   1 h    0.890 --   241 o    0.867
   243   1 h    0.887 --   241 o    0.862
   244   8 o    1.844 --   245 h    0.882   246 h    0.810
   245   1 h    0.897 --   244 o    0.882
   246   1 h    0.879 --   244 o    0.810
   247   8 o    1.816 --   249 h    0.858   248 h    0.840
   248   1 h    0.887 --   247 o    0.840
   249   1 h    0.890 --   247 o    0.858
   250   8 o    1.839 --   252 h    0.856   251 h    0.851
   251   1 h    0.886 --   250 o    0.851
   252   1 h    0.888 --   250 o    0.856
   253   8 o    1.840 --   254 h    0.825   255 h    0.814
   254   1 h    0.885 --   253 o    0.825
   255   1 h    0.877 --   253 o    0.814
   256   8 o    1.871 --   258 h    0.846   257 h    0.786
   257   1 h    0.870 --   256 o    0.786
   258   1 h    0.879 --   256 o    0.846
   259   8 o    1.858 --   261 h    0.828   260 h    0.824
   260   1 h    0.892 --   259 o    0.824
   261   1 h    0.876 --   259 o    0.828
   262   8 o    1.870 --   263 h    0.854   264 h    0.821
   263   1 h    0.887 --   262 o    0.854
   264   1 h    0.893 --   262 o    0.821
   265   8 o    1.813 --   266 h    0.827   267 h    0.819
   266   1 h    0.885 --   265 o    0.827
   267   1 h    0.884 --   265 o    0.819
   268   8 o    1.812 --   270 h    0.862   269 h    0.842
   269   1 h    0.883 --   268 o    0.842
   270   1 h    0.893 --   268 o    0.862
   271   8 o    1.883 --   272 h    0.813   273 h    0.805
   272   1 h    0.890 --   271 o    0.813
   273   1 h    0.874 --   271 o    0.805
   274   8 o    1.865 --   276 h    0.827   275 h    0.825
   275   1 h    0.887 --   274 o    0.825
   276   1 h    0.879 --   274 o    0.827
   277   8 o    1.840 --   278 h    0.833   279 h    0.811
   278   1 h    0.894 --   277 o    0.833
   279   1 h    0.882 --   277 o    0.811
   280   8 o    1.850 --   281 h    0.889   282 h    0.808
   281   1 h    0.904 --   280 o    0.889
   282   1 h    0.878 --   280 o    0.808
   283   8 o    1.860 --   284 h    0.823   285 h    0.791
   284   1 h    0.887 --   283 o    0.823
   285   1 h    0.877 --   283 o    0.791
   286   8 o    1.879 --   287 h    0.848   288 h    0.809
   287   1 h    0.883 --   286 o    0.848
   288   1 h    0.872 --   286 o    0.809
   289   8 o    1.855 --   291 h    0.816   290 h    0.778
   290   1 h    0.869 --   289 o    0.778
   291   1 h    0.876 --   289 o    0.816
   292   8 o    1.834 --   293 h    0.851   294 h    0.751
   293   1 h    0.894 --   292 o    0.851
   294   1 h    0.864 --   292 o    0.751   529 o    0.100
   295   8 o    1.870 --   296 h    0.829   297 h    0.818
   296   1 h    0.893 --   295 o    0.829
   297   1 h    0.891 --   295 o    0.818
   298   8 o    1.844 --   300 h    0.837   299 h    0.797
   299   1 h    0.878 --   298 o    0.797
   300   1 h    0.883 --   298 o    0.837
   301   8 o    1.826 --   302 h    0.822   303 h    0.812
   302   1 h    0.879 --   301 o    0.822
   303   1 h    0.888 --   301 o    0.812
   304   8 o    1.833 --   305 h    0.874   306 h    0.819
   305   1 h    0.896 --   304 o    0.874
   306   1 h    0.867 --   304 o    0.819
   307   8 o    1.853 --   308 h    0.835   309 h    0.804
   308   1 h    0.893 --   307 o    0.835
   309   1 h    0.876 --   307 o    0.804
   310   8 o    1.814 --   312 h    0.871   311 h    0.828
   311   1 h    0.878 --   310 o    0.828
   312   1 h    0.898 --   310 o    0.871
   313   8 o    1.822 --   315 h    0.871   314 h    0.840
   314   1 h    0.883 --   313 o    0.840
   315   1 h    0.893 --   313 o    0.871
   316   8 o    1.831 --   318 h    0.850   317 h    0.823
   317   1 h    0.886 --   316 o    0.823
   318   1 h    0.892 --   316 o    0.850
   319   8 o    1.887 --   321 h    0.821   320 h    0.794
   320   1 h    0.875 --   319 o    0.794
   321   1 h    0.884 --   319 o    0.821
   322   8 o    1.815 --   323 h    0.836   324 h    0.803
   323   1 h    0.892 --   322 o    0.836
   324   1 h    0.869 --   322 o    0.803
   325   8 o    1.889 --   327 h    0.836   326 h    0.808
   326   1 h    0.888 --   325 o    0.808
   327   1 h    0.878 --   325 o    0.836
   328   8 o    1.821 --   330 h    0.854   329 h    0.797
   329   1 h    0.868 --   328 o    0.797
   330   1 h    0.892 --   328 o    0.854
   331   8 o    1.843 --   333 h    0.892   332 h    0.799
   332   1 h    0.881 --   331 o    0.799
   333   1 h    0.901 --   331 o    0.892
   334   8 o    1.879 --   335 h    0.848   336 h    0.782
   335   1 h    0.894 --   334 o    0.848
   336   1 h    0.868 --   334 o    0.782
   337   8 o    1.812 --   339 h    0.852   338 h    0.821
   338   1 h    0.875 --   337 o    0.821
   339   1 h    0.888 --   337 o    0.852
   340   8 o    1.825 --   341 h    0.868   342 h    0.853
   341   1 h    0.889 --   340 o    0.868
   342   1 h    0.881 --   340 o    0.853
   343   8 o    1.884 --   344 h    0.833   345 h    0.812
   344   1 h    0.893 --   343 o    0.833
   345   1 h    0.870 --   343 o    0.812
   346   8 o    1.852 --   348 h    0.818   347 h    0.805
   347   1 h    0.878 --   346 o    0.805
   348   1 h    0.882 --   346 o    0.818
   349   8 o    1.866 --   350 h    0.832   351 h    0.818
   350   1 h    0.892 --   349 o    0.832
   351   1 h    0.893 --   349 o    0.818
   352   8 o    1.835 --   353 h    0.852   354 h    0.799
   353   1 h    0.893 --   352 o    0.852
   354   1 h    0.871 --   352 o    0.799
   355   8 o    1.826 --   357 h    0.891   356 h    0.801
   356   1 h    0.873 --   355 o    0.801
   357   1 h    0.903 --   355 o    0.891
   358   8 o    1.867 --   360 h    0.830   359 h    0.802
   359   1 h    0.869 --   358 o    0.802
   360   1 h    0.884 --   358 o    0.830
   361   8 o    1.795 --   363 h    0.883   362 h    0.820
   362   1 h    0.883 --   361 o    0.820
   363   1 h    0.901 --   361 o    0.883
   364   8 o    1.890 --   366 h    0.845   365 h    0.776
[...]
   370   8 o    1.844 --   372 h    0.825   371 h    0.810
   371   1 h    0.872 --   370 o    0.810
   372   1 h    0.892 --   370 o    0.825
   373   8 o    1.839 --   374 h    0.891   375 h    0.804
   374   1 h    0.902 --   373 o    0.891
   375   1 h    0.872 --   373 o    0.804
   376   8 o    1.848 --   377 h    0.849   378 h    0.791
   377   1 h    0.880 --   376 o    0.849
   378   1 h    0.872 --   376 o    0.791
   379   8 o    1.845 --   380 h    0.833   381 h    0.830
   380   1 h    0.887 --   379 o    0.833
   381   1 h    0.889 --   379 o    0.830
   382   8 o    1.840 --   384 h    0.844   383 h    0.833
   383   1 h    0.878 --   382 o    0.833
   384   1 h    0.879 --   382 o    0.844
   385   8 o    1.836 --   386 h    0.878   387 h    0.802
   386   1 h    0.897 --   385 o    0.878
   387   1 h    0.875 --   385 o    0.802
   388   8 o    1.844 --   389 h    0.848   390 h    0.778
   389   1 h    0.890 --   388 o    0.848
   390   1 h    0.865 --   388 o    0.778
   391   8 o    1.844 --   392 h    0.858   393 h    0.858
   392   1 h    0.885 --   391 o    0.858
   393   1 h    0.886 --   391 o    0.858
   394   8 o    1.894 --   396 h    0.832   395 h    0.791
   395   1 h    0.871 --   394 o    0.791
   396   1 h    0.888 --   394 o    0.832
   397   8 o    1.878 --   399 h    0.807   398 h    0.784
   398   1 h    0.876 --   397 o    0.784
   399   1 h    0.883 --   397 o    0.807
   400   8 o    1.788 --   402 h    0.850   401 h    0.838
   401   1 h    0.886 --   400 o    0.838
   402   1 h    0.894 --   400 o    0.850
   403   8 o    1.847 --   404 h    0.841   405 h    0.815
   404   1 h    0.888 --   403 o    0.841
   405   1 h    0.875 --   403 o    0.815
   406   8 o    1.856 --   407 h    0.835   408 h    0.831
   407   1 h    0.880 --   406 o    0.835
   408   1 h    0.887 --   406 o    0.831
   409   8 o    1.844 --   410 h    0.809   411 h    0.794
   410   1 h    0.889 --   409 o    0.809
   411   1 h    0.870 --   409 o    0.794
   412   8 o    1.892 --   413 h    0.834   414 h    0.796
   413   1 h    0.891 --   412 o    0.834
   414   1 h    0.868 --   412 o    0.796
   415   8 o    1.872 --   417 h    0.833   416 h    0.805
   416   1 h    0.889 --   415 o    0.805
   417   1 h    0.891 --   415 o    0.833
   418   8 o    1.836 --   420 h    0.872   419 h    0.808
   419   1 h    0.880 --   418 o    0.808
   420   1 h    0.895 --   418 o    0.872
   421   8 o    1.838 --   423 h    0.904   422 h    0.770
   422   1 h    0.867 --   421 o    0.770
   423   1 h    0.907 --   421 o    0.904
   424   8 o    1.850 --   425 h    0.825   426 h    0.816
   425   1 h    0.889 --   424 o    0.825
   426   1 h    0.889 --   424 o    0.816
   427   8 o    1.864 --   428 h    0.803   429 h    0.802
   428   1 h    0.881 --   427 o    0.803
   429   1 h    0.866 --   427 o    0.802
   430   8 o    1.854 --   432 h    0.831   431 h    0.829
   431   1 h    0.881 --   430 o    0.829
   432   1 h    0.881 --   430 o    0.831
   433   8 o    1.830 --   435 h    0.865   434 h    0.803
   434   1 h    0.882 --   433 o    0.803
   435   1 h    0.894 --   433 o    0.865
   436   8 o    1.853 --   438 h    0.845   437 h    0.822
   437   1 h    0.882 --   436 o    0.822
   438   1 h    0.883 --   436 o    0.845
   439   8 o    1.860 --   441 h    0.849   440 h    0.793   626 h    0.101
   440   1 h    0.869 --   439 o    0.793
   441   1 h    0.893 --   439 o    0.849
   442   8 o    1.830 --   444 h    0.862   443 h    0.855
   443   1 h    0.889 --   442 o    0.855
   444   1 h    0.891 --   442 o    0.862
   445   8 o    1.844 --   447 h    0.895   446 h    0.804
   446   1 h    0.871 --   445 o    0.804
   447   1 h    0.900 --   445 o    0.895
   448   8 o    1.787 --   450 h    0.849   449 h    0.837
   449   1 h    0.887 --   448 o    0.837
   450   1 h    0.894 --   448 o    0.849
   451   8 o    1.858 --   453 h    0.850   452 h    0.808
   452   1 h    0.868 --   451 o    0.808
   453   1 h    0.889 --   451 o    0.850
   454   8 o    1.830 --   456 h    0.855   455 h    0.854
   455   1 h    0.886 --   454 o    0.854
   456   1 h    0.889 --   454 o    0.855
   457   8 o    1.818 --   459 h    0.839   458 h    0.835
   458   1 h    0.885 --   457 o    0.835
   459   1 h    0.886 --   457 o    0.839
   460   8 o    1.832 --   461 h    0.845   462 h    0.810
   461   1 h    0.893 --   460 o    0.845
   462   1 h    0.886 --   460 o    0.810
   463   8 o    1.851 --   465 h    0.887   464 h    0.788
   464   1 h    0.861 --   463 o    0.788
   465   1 h    0.902 --   463 o    0.887
   466   8 o    1.863 --   467 h    0.824   468 h    0.804
   467   1 h    0.891 --   466 o    0.824
   468   1 h    0.878 --   466 o    0.804
   469   8 o    1.816 --   470 h    0.856   471 h    0.841
   470   1 h    0.883 --   469 o    0.856
   471   1 h    0.888 --   469 o    0.841
   472   8 o    1.837 --   473 h    0.865   474 h    0.795
   473   1 h    0.895 --   472 o    0.865
   474   1 h    0.871 --   472 o    0.795
   475   8 o    1.845 --   477 h    0.879   476 h    0.836
   476   1 h    0.883 --   475 o    0.836
   477   1 h    0.898 --   475 o    0.879
   478   8 o    1.843 --   480 h    0.868   479 h    0.843
   479   1 h    0.884 --   478 o    0.843
   480   1 h    0.889 --   478 o    0.868
   481   8 o    1.876 --   482 h    0.816   483 h    0.804
   482   1 h    0.886 --   481 o    0.816
   483   1 h    0.867 --   481 o    0.804
   484   8 o    1.830 --   485 h    0.894   486 h    0.763
   485   1 h    0.905 --   484 o    0.894
   486   1 h    0.861 --   484 o    0.763
   487   8 o    1.845 --   488 h    0.831   489 h    0.819
   488   1 h    0.884 --   487 o    0.831
   489   1 h    0.893 --   487 o    0.819
   490   8 o    1.819 --   492 h    0.854   491 h    0.821
   491   1 h    0.881 --   490 o    0.821
   492   1 h    0.885 --   490 o    0.854
   493   8 o    1.870 --   495 h    0.831   494 h    0.777
   494   1 h    0.873 --   493 o    0.777
   495   1 h    0.878 --   493 o    0.831
   496   8 o    1.875 --   497 h    0.838   498 h    0.807
   497   1 h    0.879 --   496 o    0.838
   498   1 h    0.871 --   496 o    0.807
   499   8 o    1.837 --   500 h    0.887   501 h    0.816
   500   1 h    0.900 --   499 o    0.887
   501   1 h    0.879 --   499 o    0.816
   502   8 o    1.818 --   504 h    0.887   503 h    0.853
   503   1 h    0.888 --   502 o    0.853
   504   1 h    0.900 --   502 o    0.887
   505   8 o    1.851 --   506 h    0.864   507 h    0.839
   506   1 h    0.893 --   505 o    0.864
   507   1 h    0.889 --   505 o    0.839
   508   8 o    1.812 --   509 h    0.855   510 h    0.820
   509   1 h    0.897 --   508 o    0.855
   510   1 h    0.872 --   508 o    0.820
   511   8 o    1.865 --   512 h    0.816   513 h    0.811
   512   1 h    0.889 --   511 o    0.816
   513   1 h    0.886 --   511 o    0.811
   514   8 o    1.821 --   515 h    0.883   516 h    0.792
   515   1 h    0.903 --   514 o    0.883
   516   1 h    0.864 --   514 o    0.792
   517   8 o    1.839 --   519 h    0.856   518 h    0.828
   518   1 h    0.881 --   517 o    0.828
   519   1 h    0.890 --   517 o    0.856
   520   8 o    1.820 --   522 h    0.868   521 h    0.810
   521   1 h    0.881 --   520 o    0.810
   522   1 h    0.896 --   520 o    0.868
   523   8 o    1.856 --   525 h    0.890   524 h    0.769
   524   1 h    0.863 --   523 o    0.769
   525   1 h    0.902 --   523 o    0.890
   526   8 o    1.848 --   527 h    0.854   528 h    0.779
   527   1 h    0.896 --   526 o    0.854
   528   1 h    0.873 --   526 o    0.779
   529   8 o    1.883 --   531 h    0.815   530 h    0.809   294 h    0.100
   530   1 h    0.876 --   529 o    0.809
   531   1 h    0.879 --   529 o    0.815
   532   8 o    1.807 --   533 h    0.841   534 h    0.831
   533   1 h    0.890 --   532 o    0.841
   534   1 h    0.885 --   532 o    0.831
   535   8 o    1.828 --   536 h    0.857   537 h    0.822
   536   1 h    0.880 --   535 o    0.857
   537   1 h    0.888 --   535 o    0.822
   538   8 o    1.794 --   540 h    0.873   539 h    0.831
   539   1 h    0.890 --   538 o    0.831
   540   1 h    0.894 --   538 o    0.873
   541   8 o    1.820 --   543 h    0.892   542 h    0.795
   542   1 h    0.879 --   541 o    0.795
   543   1 h    0.900 --   541 o    0.892
   544   8 o    1.823 --   546 h    0.835   545 h    0.828
   545   1 h    0.880 --   544 o    0.828
   546   1 h    0.883 --   544 o    0.835
   547   8 o    1.831 --   548 h    0.854   549 h    0.828
   548   1 h    0.886 --   547 o    0.854
   549   1 h    0.879 --   547 o    0.828
   550   8 o    1.799 --   552 h    0.867   551 h    0.826
   551   1 h    0.883 --   550 o    0.826
   552   1 h    0.894 --   550 o    0.867
   553   8 o    1.870 --   555 h    0.859   554 h    0.824
   554   1 h    0.885 --   553 o    0.824
   555   1 h    0.892 --   553 o    0.859
   556   8 o    1.854 --   558 h    0.884   557 h    0.808
   557   1 h    0.881 --   556 o    0.808
   558   1 h    0.898 --   556 o    0.884
   559   8 o    1.822 --   561 h    0.838   560 h    0.835
   560   1 h    0.885 --   559 o    0.835
   561   1 h    0.881 --   559 o    0.838
   562   8 o    1.788 --   564 h    0.845   563 h    0.839
   563   1 h    0.890 --   562 o    0.839
   564   1 h    0.897 --   562 o    0.845
   565   8 o    1.828 --   567 h    0.841   566 h    0.839
   566   1 h    0.881 --   565 o    0.839
   567   1 h    0.886 --   565 o    0.841
   568   8 o    1.793 --   569 h    0.856   570 h    0.828
   569   1 h    0.892 --   568 o    0.856
   570   1 h    0.876 --   568 o    0.828
   571   8 o    1.824 --   573 h    0.841   572 h    0.824
   572   1 h    0.884 --   571 o    0.824
   573   1 h    0.885 --   571 o    0.841
   574   8 o    1.813 --   576 h    0.878   575 h    0.838
   575   1 h    0.885 --   574 o    0.838
   576   1 h    0.893 --   574 o    0.878
   577   8 o    1.853 --   579 h    0.829   578 h    0.821
   578   1 h    0.876 --   577 o    0.821
   579   1 h    0.893 --   577 o    0.829
   580   8 o    1.842 --   581 h    0.861   582 h    0.822
   581   1 h    0.889 --   580 o    0.861
   582   1 h    0.885 --   580 o    0.822
   583   8 o    1.802 --   585 h    0.841   584 h    0.838
   584   1 h    0.888 --   583 o    0.838
   585   1 h    0.884 --   583 o    0.841
   586   8 o    1.818 --   587 h    0.824   588 h    0.780
   587   1 h    0.892 --   586 o    0.824
   588   1 h    0.875 --   586 o    0.780
   589   8 o    1.838 --   591 h    0.871   590 h    0.848
   590   1 h    0.883 --   589 o    0.848
   591   1 h    0.892 --   589 o    0.871
   592   8 o    1.837 --   594 h    0.858   593 h    0.813
   593   1 h    0.880 --   592 o    0.813
   594   1 h    0.897 --   592 o    0.858
   595   8 o    1.839 --   596 h    0.889   597 h    0.787
   596   1 h    0.904 --   595 o    0.889
   597   1 h    0.862 --   595 o    0.787
   598   8 o    1.817 --   599 h    0.851   600 h    0.829
   599   1 h    0.888 --   598 o    0.851
   600   1 h    0.875 --   598 o    0.829
   601   8 o    1.819 --   602 h    0.846   603 h    0.809
   602   1 h    0.891 --   601 o    0.846
   603   1 h    0.873 --   601 o    0.809
   604   8 o    1.822 --   605 h    0.855   606 h    0.833
   605   1 h    0.893 --   604 o    0.855
   606   1 h    0.883 --   604 o    0.833
   607   8 o    1.848 --   609 h    0.855   608 h    0.843
   608   1 h    0.882 --   607 o    0.843
   609   1 h    0.886 --   607 o    0.855
   610   8 o    1.830 --   612 h    0.862   611 h    0.859
   611   1 h    0.888 --   610 o    0.859
   612   1 h    0.889 --   610 o    0.862
   613   8 o    1.826 --   614 h    0.855   615 h    0.827
   614   1 h    0.896 --   613 o    0.855
   615   1 h    0.883 --   613 o    0.827
   616   8 o    1.840 --   617 h    0.820   618 h    0.796
   617   1 h    0.892 --   616 o    0.820
   618   1 h    0.880 --   616 o    0.796
   619   8 o    1.821 --   620 h    0.838   621 h    0.834
   620   1 h    0.887 --   619 o    0.838
   621   1 h    0.895 --   619 o    0.834
   622   8 o    1.840 --   623 h    0.896   624 h    0.796
   623   1 h    0.902 --   622 o    0.896
   624   1 h    0.872 --   622 o    0.796
   625   8 o    1.830 --   627 h    0.846   626 h    0.765
   626   1 h    0.875 --   625 o    0.765   439 o    0.101
   627   1 h    0.896 --   625 o    0.846
   628   8 o    1.865 --   629 h    0.855   630 h    0.804
   629   1 h    0.892 --   628 o    0.855
   630   1 h    0.886 --   628 o    0.804
   631   8 o    1.860 --   632 h    0.816   633 h    0.813
   632   1 h    0.881 --   631 o    0.816
   633   1 h    0.884 --   631 o    0.813
   634   8 o    1.815 --   635 h    0.855   636 h    0.828
   635   1 h    0.892 --   634 o    0.855
   636   1 h    0.884 --   634 o    0.828
   637   8 o    1.844 --   638 h    0.885   639 h    0.831
   638   1 h    0.899 --   637 o    0.885
   639   1 h    0.875 --   637 o    0.831
   640   8 o    1.828 --   642 h    0.861   641 h    0.793
   641   1 h    0.875 --   640 o    0.793
   642   1 h    0.893 --   640 o    0.861
   643   8 o    1.829 --   644 h    0.854   645 h    0.851
   644   1 h    0.893 --   643 o    0.854
   645   1 h    0.891 --   643 o    0.851
   646   8 o    1.825 --   647 h    0.872   648 h    0.787
   647   1 h    0.899 --   646 o    0.872
   648   1 h    0.864 --   646 o    0.787
   649   8 o    1.864 --   650 h    0.855   651 h    0.835
   650   1 h    0.891 --   649 o    0.855
   651   1 h    0.881 --   649 o    0.835
   652   8 o    1.838 --   654 h    0.842   653 h    0.826
   653   1 h    0.886 --   652 o    0.826
   654   1 h    0.885 --   652 o    0.842
   655   8 o    1.805 --   657 h    0.871   656 h    0.844
   656   1 h    0.884 --   655 o    0.844
   657   1 h    0.894 --   655 o    0.871
   658   8 o    1.803 --   660 h    0.828   659 h    0.828
   659   1 h    0.882 --   658 o    0.828
   660   1 h    0.882 --   658 o    0.828
   661   8 o    1.857 --   662 h    0.874   663 h    0.816
   662   1 h    0.900 --   661 o    0.874
   663   1 h    0.883 --   661 o    0.816
   664   8 o    1.868 --   665 h    0.814   666 h    0.789
   665   1 h    0.873 --   664 o    0.814
   666   1 h    0.879 --   664 o    0.789
   667   8 o    1.795 --   669 h    0.853   668 h    0.832
   668   1 h    0.888 --   667 o    0.832
   669   1 h    0.891 --   667 o    0.853
   670   8 o    1.823 --   672 h    0.848   671 h    0.826
   671   1 h    0.883 --   670 o    0.826
   672   1 h    0.887 --   670 o    0.848
   673   8 o    1.871 --   674 h    0.845   675 h    0.786
   674   1 h    0.891 --   673 o    0.845
   675   1 h    0.867 --   673 o    0.786
   676   8 o    1.878 --   678 h    0.847   677 h    0.767
   677   1 h    0.867 --   676 o    0.767
   678   1 h    0.888 --   676 o    0.847
   679   8 o    1.867 --   680 h    0.828   681 h    0.827
   680   1 h    0.896 --   679 o    0.828
   681   1 h    0.881 --   679 o    0.827
   682   8 o    1.799 --   683 h    0.847   684 h    0.805
   683   1 h    0.885 --   682 o    0.847
   684   1 h    0.877 --   682 o    0.805
   685   8 o    1.886 --   686 h    0.835   687 h    0.833
   686   1 h    0.888 --   685 o    0.835
   687   1 h    0.891 --   685 o    0.833
   688   8 o    1.857 --   689 h    0.831   690 h    0.820
   689   1 h    0.888 --   688 o    0.831
   690   1 h    0.878 --   688 o    0.820
   691   8 o    1.837 --   693 h    0.875   692 h    0.798
   692   1 h    0.872 --   691 o    0.798
   693   1 h    0.897 --   691 o    0.875
   694   8 o    1.899 --   696 h    0.832   695 h    0.808
   695   1 h    0.872 --   694 o    0.808
   696   1 h    0.885 --   694 o    0.832
   697   8 o    1.821 --   698 h    0.863   699 h    0.839
   698   1 h    0.892 --   697 o    0.863
   699   1 h    0.882 --   697 o    0.839
   700   8 o    1.837 --   702 h    0.910   701 h    0.794
   701   1 h    0.877 --   700 o    0.794
   702   1 h    0.913 --   700 o    0.910
   703   8 o    1.841 --   705 h    0.863   704 h    0.813
   704   1 h    0.877 --   703 o    0.813
   705   1 h    0.891 --   703 o    0.863
   706   8 o    1.827 --   708 h    0.842   707 h    0.838
   707   1 h    0.883 --   706 o    0.838
   708   1 h    0.887 --   706 o    0.842
   709   8 o    1.822 --   710 h    0.848   711 h    0.834
   710   1 h    0.893 --   709 o    0.848
   711   1 h    0.889 --   709 o    0.834
   712   8 o    1.884 --   713 h    0.840   714 h    0.790
   713   1 h    0.892 --   712 o    0.840
   714   1 h    0.874 --   712 o    0.790
   715   8 o    1.855 --   717 h    0.853   716 h    0.817
   716   1 h    0.882 --   715 o    0.817
   717   1 h    0.896 --   715 o    0.853
   718   8 o    1.890 --   719 h    0.852   720 h    0.809
   719   1 h    0.891 --   718 o    0.852
   720   1 h    0.886 --   718 o    0.809
   721   8 o    1.879 --   723 h    0.851   722 h    0.832
   722   1 h    0.887 --   721 o    0.832
   723   1 h    0.896 --   721 o    0.851
   724   8 o    1.872 --   726 h    0.850   725 h    0.820
   725   1 h    0.877 --   724 o    0.820
   726   1 h    0.895 --   724 o    0.850
   727   8 o    1.801 --   729 h    0.869   728 h    0.857
   728   1 h    0.891 --   727 o    0.857
   729   1 h    0.896 --   727 o    0.869
   730   8 o    1.837 --   731 h    0.891   732 h    0.820
   731   1 h    0.899 --   730 o    0.891
   732   1 h    0.876 --   730 o    0.820
   733   8 o    1.805 --   735 h    0.895   734 h    0.818
   734   1 h    0.878 --   733 o    0.818
   735   1 h    0.905 --   733 o    0.895
   736   8 o    1.856 --   737 h    0.873   738 h    0.825
   737   1 h    0.899 --   736 o    0.873
   738   1 h    0.881 --   736 o    0.825
   739   8 o    1.830 --   741 h    0.840   740 h    0.816
   740   1 h    0.870 --   739 o    0.816
   741   1 h    0.891 --   739 o    0.840
   742   8 o    1.822 --   744 h    0.868   743 h    0.777
   743   1 h    0.869 --   742 o    0.777
   744   1 h    0.898 --   742 o    0.868
   745   8 o    1.793 --   747 h    0.851   746 h    0.826
   746   1 h    0.888 --   745 o    0.826
   747   1 h    0.894 --   745 o    0.851
   748   8 o    1.877 --   750 h    0.828   749 h    0.766
   749   1 h    0.872 --   748 o    0.766
   750   1 h    0.895 --   748 o    0.828
   751   8 o    1.836 --   753 h    0.878   752 h    0.850
   752   1 h    0.884 --   751 o    0.850
   753   1 h    0.895 --   751 o    0.878
   754   8 o    1.842 --   755 h    0.879   756 h    0.868
   755   1 h    0.890 --   754 o    0.879
   756   1 h    0.883 --   754 o    0.868
 ---------------------------------------------------------------------------

Topologies differ in total number of bonds
Writing topology from bond orders to xtbtopo.mol

molecular dipole:
                 x           y           z       tot (Debye)
 q only:        7.845      -0.136      -2.315
   full:        9.668      -0.230      -3.105      25.816
molecular quadrupole (traceless):
                xx          xy          yy          xz          yz          zz
 q only:       73.050     -41.074     -54.085     -43.033     -57.908     -18.966
  q+dip:       89.876     -58.134     -65.956     -53.183     -55.386     -23.921
   full:       90.738     -58.084     -66.217     -53.183     -53.119     -24.521


           -------------------------------------------------
          | TOTAL ENERGY            -1283.601507313823 Eh   |
          | GRADIENT NORM               0.102859572814 Eh/α |
          | HOMO-LUMO GAP               7.892782174927 eV   |
           -------------------------------------------------

------------------------------------------------------------------------
 * finished run on 2022/11/24 at 09:28:08.976     
------------------------------------------------------------------------
 total:
 * wall-time:     0 d,  0 h,  0 min, 22.450 sec
 *  cpu-time:     0 d,  0 h,  0 min, 36.460 sec
 * ratio c/w:     1.624 speedup
 SCF:
 * wall-time:     0 d,  0 h,  0 min, 21.416 sec
 *  cpu-time:     0 d,  0 h,  0 min, 34.713 sec
 * ratio c/w:     1.621 speedup

