756
 energy: -1283.331052709279 gnorm: 0.012192865734 xtb: 6.5.1 (579679a)
o           -2.52204193551236       -6.90478699389404       -4.72260974605011
h           -2.46309182348151       -5.93221259742685       -4.84752969926048
h           -3.46109404188964       -7.11878467094008       -4.72937693812223
o            0.56578019520831       -2.07977881114408       -1.63745855608125
h           -0.19430039067315       -2.68022823503607       -1.76647790371130
h            0.70251998622216       -1.99571653974329       -0.67578239130313
o            2.98813419366956       -0.47355572626469       -1.51085649682726
h            3.78760288159726        0.07374757175778       -1.43576826139341
h            2.33758540842592       -0.13605984027693       -0.86879617039573
o            3.79842746049284        0.62898037764480        1.93031170461152
h            4.53335239700868        0.94379343713747        2.47899073450653
h            3.82213939249304        1.16605305821688        1.10905219050562
o            0.97996694598163        0.01306580518802       -3.32144121934637
h            0.26839543069918        0.24029989490578       -3.94365566231924
h            0.67112765763490       -0.66319628397037       -2.69244591770299
o           -3.54329517656369       -5.76186234223119        0.03058415466242
h           -4.29358064475437       -5.99316287377186        0.60256464479566
h           -3.02480436706779       -5.06346018282723        0.48291439039681
o            3.61329490236923       -2.01197181543525        1.80123325668669
h            3.16214527232523       -2.19441023340930        2.65718445687444
h            3.69822375438965       -1.03008882043157        1.79124564991336
o           -1.81518539609224       -4.00097541130126        1.00539740962231
h           -0.99278745979226       -4.33804460072887        0.60303342055235
h           -2.12037235587819       -3.24164939374927        0.48146403663110
o            3.20776908979260       -4.91703220381224        1.06540550955466
h            2.98886654300154       -5.17100577284907        0.14826735454445
h            3.42771583158645       -3.97865853997184        1.02141895163549
o            2.00435724964154        2.61504181048434        2.50307993317183
h            2.42914378523131        1.75343616022112        2.34142216066982
h            1.43594354717725        2.79656471914281        1.74090431628381
o            0.83605882153285        2.79524574056516        5.00306294033055
h            0.18670884927776        2.11031167821157        4.76577050264566
h            1.36258618288308        2.88872662829247        4.19065065160360
o           -0.84412079668497        1.23888122136017        3.60995508487887
h           -0.82207267303034        1.96747145736358        2.94812601028151
h           -0.12482616231883        0.62137537925071        3.35654134058977
o            0.08084310169956       -4.85543520462677       -5.98876290848024
h           -0.67617156696696       -4.48669931773736       -5.51663933028226
h            0.08013168176548       -5.80700664564295       -5.78265382370255
o           -0.66728500809146        3.34447582180959        2.07547055374374
h           -1.34757260427592        3.79129501065453        1.55784033746810
h           -0.15909046143995        4.03475671556715        2.53552451336163
o            5.13879480103789        1.14388298997410       -1.78634207046856
h            6.05478160875516        0.88927061939599       -1.58880931789470
h            4.84134185813438        1.74899373183341       -1.08590742565258
o           -1.46079537877186       -1.24315814316366       -6.16611934062530
h           -0.60239793891120       -1.66924412693219       -6.34171407103453
h           -1.24323082355645       -0.29563128257234       -6.06080064549694
o           -1.64936209787703        0.96197281985088       -2.67727418221050
h           -2.10456411764472        1.40115539370491       -3.42757875369955
h           -2.03035544002951        1.40700861186170       -1.88466167184641
o           -6.71713587220400       -0.32550585950043       -3.27131881399674
h           -6.59807082835052       -0.65871893878592       -4.17211687092306
h           -7.67755168129937       -0.37668507025216       -3.07939078250337
o           -5.14195244814466        1.79551621361720       -2.98485086857437
h           -5.72015310840090        1.03615174436893       -3.21529773599410
h           -4.59725123008072        1.46448461782940       -2.25038288541635
o           -3.88199413943989        2.97383075509672        2.39210198786766
h           -3.39740422689903        3.70797036538530        1.97421111033872
h           -4.24351399349928        2.44304139794187        1.65661914650399
o           -2.66651032120916        2.52375656805343       -4.53296256224511
h           -3.00095786447999        3.24804587065590       -3.96588929515661
h           -3.42418216701464        2.00634752625676       -4.86766523429239
o            3.16297209954884       -0.79292308923493       -4.50551595949128
h            2.30844934942898       -0.61878668419100       -4.04948660580063
h            3.40725030718526        0.04843026390683       -4.93485993855807
o           -3.09223323951172       -2.46761650206196       -0.78724444236162
h           -3.94217691525659       -2.88821405514000       -0.52774343163738
h           -3.30618032716243       -1.54580776658455       -1.00462724649389
o           -3.99754721111945        0.08813849592276       -1.16332279237053
h           -4.78141527119430       -0.17336394091594       -0.63989811973197
h           -3.31253400557306        0.31281195987844       -0.46250301999055
o           -3.27560354719935       -1.98292288933013        2.53396684260625
h           -3.71245216646941       -2.84042644407380        2.40830866986405
h           -2.35802670142903       -2.16923493794496        2.79276543349530
o           -4.98722138880043        2.39823463979907        0.09958028186111
h           -5.18462982908535        3.33328566734779       -0.07208038911266
h           -5.76808869695355        1.87784472287896       -0.17671567580465
o            1.79084623325072        0.23956257797406       -7.33499223378100
h            1.56164567871534       -0.57901266928072       -6.86424578125541
h            1.86512888985907        0.95046602301842       -6.67041818413810
o            3.16798812458310       -3.00737553488471       -0.89041639258968
h            2.33596177247623       -3.41154938888665       -1.14318695923829
h            3.10650743648745       -2.06217214537780       -1.16227662346741
o           -7.90457184473716       -2.69235231441165       -0.72463437107059
h           -8.64214103750733       -2.96348887285602       -1.29596414376443
h           -7.12778191370531       -2.67690883184411       -1.31478130451842
o            3.61440989346585        2.39309794547521       -0.00862423300005
h            2.65394263297510        2.52696152025582       -0.15157860593716
h            3.92600471885689        3.26493729668855        0.27341405693366
o           -7.57207029398562       -3.46601042483368       -4.52420474195762
h           -6.99291508401792       -3.82481539824494       -5.22731152862539
h           -6.94507964795590       -3.14699081543124       -3.81947631134047
o           -5.26704821653887       -1.85246721303338        4.47174988212395
h           -4.97409512531821       -1.60413928057266        5.36079420584120
h           -4.48522238797403       -1.95443088137379        3.90611021180257
o            4.64552144610228        3.88646784632516       -6.50491089899337
h            5.61418819793208        3.87692097471083       -6.57212005655820
h            4.39215156750933        2.96685467134403       -6.25661691532934
o            5.29192815163023       -3.55478579389765        3.25066658501259
h            5.99436519696060       -4.13263947278582        2.89057690002097
h            4.86743676891353       -3.10718109522477        2.49745600939339
o            5.49775997863380       -1.54620543764768       -0.47955639060820
h            5.90516349873628       -0.73457249504862       -0.12229022475435
h            4.77244837372634       -1.77558416926630        0.10654194971530
o           -5.31979577584513       -3.51851416036252        0.10260130348092
h           -5.13968868135472       -3.84802314719153        0.99753061995194
h           -5.72909516877136       -4.26422461267795       -0.38487699769250
o            1.16863297277777        3.32906509903893       -0.17483932167915
h            1.04290832694227        4.26659609675790        0.03935181864882
h            0.74672725812076        3.17500565763206       -1.03133410051600
o           -0.60868956452779       -2.38826569982382        3.29436532465857
h           -0.09259121170966       -2.53971825037238        2.48251745427939
h           -0.46901280848621       -3.16674977789809        3.85723111083732
o           -2.55192568403985        2.67581144364590       -0.96304783175103
h           -3.36714909230566        2.45617561202328       -0.48369781252381
h           -2.82199898998333        3.35237729347602       -1.60738279937157
o            5.21492163107465       -1.56116951205909       -3.05691109188866
h            4.35760706921378       -1.21205827824868       -3.39647496058518
h            5.24109485284663       -1.44867404639646       -2.06999304425221
o            5.96685936091230       -6.83378360908189       -1.62279116964208
h            5.72094123512762       -5.97687991218282       -1.19230778678130
h            6.75137266882763       -6.62219862401199       -2.16558243598340
o            2.92276007653509        1.90948025374405       -3.15396366478456
h            3.83102799526842        1.71366314661149       -2.87293150425777
h            2.41169772524968        1.10721956617563       -2.94022685691451
o           -5.92380424260708       -2.86133482953359       -2.59711645804694
h           -5.28118969692686       -3.59161738888022       -2.49144656745096
h           -5.40410679942268       -2.10922061421285       -2.94139314490635
o           -3.06997294507702        0.62937452670867       -7.88074689464761
h           -3.34996806040003        0.12766576055536       -8.64384136714988
h           -2.10566576904271        0.81546331294357       -8.00904656094433
o            7.77081233964709        0.30629812168272       -1.82989620392773
h            8.13643930892487        1.00134967879754       -1.24968607415761
h            8.19884041843574        0.37470610483581       -2.69664536461311
o            6.18258334989821        0.74517605026487       -4.30411765437686
h            6.56744726279145        1.53520485126844       -3.86209141558642
h            5.91842705790576        0.14563892838825       -3.59326355762736
o            1.63027658514791       -3.22338344774403       -3.81143457848616
h            2.56950585530868       -3.47055364941218       -3.70162049957477
h            1.37533964100011       -2.66848658292579       -3.05162974677893
o           -9.18688861906747       -0.28804270517630       -2.37411451453639
h           -9.93870866461579       -0.66620073289184       -2.85411592010366
h           -9.36443664179504        0.66066338850544       -2.26817161016595
o            0.87938751041280        5.28467822550310        3.23468727059523
h            1.56042179432867        5.11108526910849        3.90883807944955
h            0.28040654458457        5.93437169932624        3.66663785582035
o           -5.84953545059724        2.92532318889719       -5.42098836735645
h           -5.47874118199827        2.57818729280338       -4.59512268257821
h           -5.11055232195817        3.03646525108580       -6.03679534392388
o            2.96906184483899       -5.69953097211444       -1.53846582066591
h            3.51241749402823       -5.18127544999655       -2.16392480793763
h            3.33455829272967       -6.59193930461909       -1.47477453707466
o           -0.58256945995077        1.08346736707905       -5.30625868760112
h           -1.30097383489938        1.72560389680328       -5.18765395720453
h            0.20674687041884        1.61327502752513       -5.51419013380945
o            5.60078782037520        6.91526308992196       -1.34069999211387
h            5.89434596503991        7.01644426543511       -0.42577791289762
h            4.68156175765837        7.23091058163709       -1.34161999822870
o            4.06902879238728        2.96978381307197        5.37304524520472
h            4.36009016428342        2.71163580922248        6.27113706658221
h            3.52431821002405        2.20428424519276        5.08238768247122
o            1.78395308758994        2.22593990808371        7.52868683501033
h            1.54640279452926        2.48915348836371        6.62049230357011
h            1.82260624340407        1.25611253806145        7.52828064864819
o            6.47384319597593        0.57370215257343        0.70279719999677
h            6.38842108160080        1.53195114157003        0.83787615766439
h            6.74640058578894        0.17371201158365        1.53903173041340
o           -6.39351578302846        3.77717611406450        2.80799159578259
h           -6.96358061833965        3.03918982003308        3.11234342154598
h           -5.47993407788759        3.41543605542595        2.75855265996973
o           -5.01092017120150        0.36512431302477        2.70536843400408
h           -4.24285648786033       -0.03882203139819        3.13876661579431
h           -5.13474679101340       -0.06700404338350        1.84014967637622
o           -5.23395559570919       -6.76546492211981       -4.00219570558780
h           -6.19529523471846       -6.66440928119546       -3.94953709787342
h           -5.00208952382060       -7.34265367876997       -3.22753575895874
o          -11.26109593382864        0.03834205694254       -0.39899833708202
h          -11.60944550120959        0.16853551786398        0.49168203658328
h          -10.31083885059089       -0.18942677272554       -0.28446275540852
o            7.12370084418390       -3.18613363969995        1.14144205940014
h            7.57027560145223       -2.62114316821803        0.48155031742326
h            6.49324833357563       -3.71443055078621        0.61625781842536
o           -6.98364110047836        3.59986980971455       -2.35088029409198
h           -6.30583009616350        2.91859372792170       -2.55391941385494
h           -6.96476499122937        3.73069872777677       -1.38838339628975
o           -3.58722843778728        3.32638803758749       -7.06646736089397
h           -2.65017965792419        3.55973861703803       -6.97471956220604
h           -3.57287926371877        2.43673235862730       -7.44847050695303
o            3.09301308733930       -3.43347268695256        6.56840060770293
h            2.34860811630280       -3.08516366796750        7.07760563436057
h            2.87253099099495       -4.36789781895928        6.43897337091108
o          -10.44666150138932        1.38583468362645        4.61694918175321
h          -10.66376567304722        2.14823344789308        5.15438120439140
h           -9.54904892156710        1.57217641473827        4.24482078367793
o           -7.05724289714979        1.05001748318241       -0.82224578421441
h           -7.89189819141303        1.48847120510384       -1.02502474950123
h           -6.88001655979243        0.45681403881813       -1.55980038208607
o            5.73536179759007        4.10556844969760       -1.52486081702806
h            5.74690350931900        5.07334541550969       -1.49603801610185
h            5.87702676494652        3.78322557360367       -0.61531244861292
o           -2.26738836643834       -4.57100649421565        3.58398024818879
h           -1.75562913541790       -5.37494080702891        3.70186312045195
h           -2.12809822776131       -4.32057284664989        2.65585274939778
o           -9.30853252288193        2.37554285330403       -1.76208534461882
h          -10.12889103187136        2.88478454025815       -1.75985511612587
h           -8.65151074253829        2.91482474307135       -2.24244848335213
o            1.05375766593530       -2.20052722844176       -6.21770472053985
h            1.26944749782450       -2.49274395703036       -5.30274304382690
h            0.96199819854855       -3.01440578173207       -6.71831744659401
o           -2.43182380898238       -4.23854381106034       -4.60074596845628
h           -2.90312369215667       -3.66006223153009       -5.23242692305057
h           -3.02767241900155       -4.31392548256663       -3.82632747760436
o           -1.33120785729428       -3.95903072419274       -2.03622664548487
h           -2.07043039211137       -3.45251255818588       -1.63655991716481
h           -1.38691068562669       -3.78223261729558       -2.98349258310032
o            3.11500443589905        4.43384601164092       -2.22951766935181
h            2.98139547309514        3.48697676028875       -2.40135850490899
h            3.78270001015240        4.72256746795385       -2.88513645292546
o            2.30612094324478       -2.59129475648729        4.03530704881621
h            1.82658212293503       -3.38400125184248        3.72099030577742
h            2.65647881503956       -2.80414011513988        4.91371891841949
o           -4.98100269377743        5.10454525861544       -0.31887081041600
h           -5.35870706973475        5.63623106328717        0.41524435507479
h           -5.06874395603696        5.63828842819595       -1.11492198396060
o           -1.89733758337079       -6.67312530638684       -2.08218175222154
h           -1.66162664303891       -5.72720605654685       -2.01293524764602
h           -2.08609746865821       -6.83342344611481       -3.02505985904396
o           -2.62433211972242        3.04683884282303        4.72753797569284
h           -3.23987450891421        2.86131207933586        3.99396082165184
h           -1.91778480747358        2.39896445773091        4.64276402325824
o           -0.02794264720747       -0.73330572786590        5.37678273345764
h           -0.33064014352424       -1.24491622060023        4.60667414880636
h            0.23752943596266       -1.39226200803010        6.02943260240715
o           -4.84362769632263       -4.19846595947842        2.64221270576332
h           -5.75412181234941       -3.95705827147568        2.85961685819335
h           -4.49195644514941       -4.77808956760312        3.33972938764956
o           -9.99087837687545        2.28395455180147       -4.62002073426782
h          -10.63788819364801        1.86288196626751       -4.03540197290741
h           -9.81038090542174        3.16319924042783       -4.26605197270807
o           -4.44130767924836        5.74712423789843       -5.54846245032992
h           -4.19632760287725        4.99500186077858       -6.10072251749263
h           -3.61699051702630        6.12039514596754       -5.20933098519356
o           -7.78426196029892       -5.90096215212602       -3.35051749184857
h           -8.64732408382679       -6.07520780715984       -2.96649462767731
h           -7.83657314564588       -5.04567240137728       -3.82683257115764
o           -9.92904350631267       -1.34322721267921        5.07053446787088
h           -9.10327965172426       -1.24613849238708        5.56741382577180
h          -10.29090018554038       -0.44549465846808        5.02920623990520
o            2.05238158588616        4.68093480521665       -6.97442787313331
h            2.01329292661240        5.42550001343782       -6.35616643999381
h            2.99594000494550        4.51979086126701       -7.11889932422935
o            3.69743764286235        5.16777716764882        0.32011107840111
h            2.80547738871623        5.49289174958561        0.54148903006224
h            3.65566199753816        4.96207696243306       -0.63294332057733
o            0.23601128160335        2.86042610051798       -2.73770135880411
h           -0.41316475906784        2.11668728622006       -2.74399545782038
h            1.07045550008645        2.48900095617756       -3.04675533523114
o            1.67649742795948        2.39805945211516       -5.60130005052771
h            1.80091702301600        3.22457405863345       -6.10912735221289
h            2.37543872611362        2.33041219189131       -4.93387021845015
o            8.75848939391329       -0.16864019725399       -4.40843642749833
h            8.11161048512881       -0.75282968525492       -4.82153456567208
h            9.20395058848459        0.31167310278377       -5.13771191973814
o            8.16699222249037       -3.98343093242887       -5.35769726562867
h            7.74959090911570       -3.10900953145528       -5.46350184991210
h            8.81603972667373       -3.87105448825517       -4.63565184111772
o           -5.19444410757490        3.39481264483949        7.37329582642702
h           -4.72554745997737        2.55787750148761        7.23534322182599
h           -4.48892645943063        4.05257141111450        7.45734989152913
o            9.58508090902438       -0.99027929192484        1.72015810510896
h           10.19710588594229       -1.74496568620721        1.83662191260340
h            9.68181393544995       -0.67577680580327        0.80084251340017
o            7.19466127310051       -1.08216661559979        2.83141821810909
h            8.11382436982326       -0.95889258823680        2.52820875694017
h            6.96085454859236       -1.93769085662689        2.42967268258209
o            5.84707687532515        1.44825506853524        3.55371084949722
h            6.06470973583430        1.68729905945732        4.47255778214931
h            6.66085320942536        1.64692529580291        3.04886584723499
o           -6.11127315641392       -1.19961595850315       -5.89294671736981
h           -6.86690378910880       -1.06580312791809       -6.46646447856057
h           -5.62948708861276       -0.34683146802219       -5.86090057224274
o           -8.80055381941038       -0.56490127808992        0.53317492243347
h           -9.19449345236197       -1.00034109089151        1.31719735769433
h           -8.51509465319478       -1.28516698206614       -0.07083026632861
o           -5.79628180943788       -0.90550812408951        0.51417993099564
h           -6.70789467106142       -0.59890932233491        0.42186171956115
h           -5.76947935972461       -1.87313891181558        0.39439519810930
o            1.33127056568861        6.30528087721454       -2.19170620635987
h            1.93797583010055        5.52390040620868       -2.17597881861898
h            0.52801529061224        5.99628123738245       -1.73983390658335
o           -3.63077702274720        1.15204816181618        6.66546543009768
h           -2.76455661521233        1.38128188704873        7.03477906623380
h           -3.38992837279248        0.68410868303028        5.81840755048535
o            8.18431190718360        2.19026033129395        2.45598233684111
h            8.14940770782178        2.95207371901549        3.06756758909989
h            8.96563574239468        1.68640659593998        2.76465149270366
o            1.27231243755860       -0.23223576335388        2.95808597915731
h            1.83110051471613        0.24035001560093        3.61188806389970
h            1.31661282194833       -1.15563247548405        3.24109693290036
o           10.65825844315797       -1.17846647826510       -2.91254332148289
h           10.54429659413117       -0.70428090875884       -2.07134577702639
h            9.99752505085924       -0.78775174801481       -3.51952967486856
o            7.01262999648889        0.83920273474101       -6.91689843827045
h            6.33882878300207        0.48994902784390       -7.51038186930904
h            6.82340199744494        0.45276799129337       -6.04207878513365
o            4.16453953712615       -4.04033723484960       -3.33849859906401
h            4.71642677182397       -4.43430007439892       -4.03738689392328
h            4.55475954282254       -3.17056049074488       -3.13340825669133
o          -11.88503947394074        1.21156721709441       -2.82756392726709
h          -11.66331036861224        0.80755334437762       -1.96852489056591
h          -12.14549350527656        2.12186125333975       -2.64951177968588
o          -11.67435391728794        3.93102292789123       -2.07018914663402
h          -11.08914911648109        4.34458813212207       -2.72932931068090
h          -11.82111679397130        4.60909003488240       -1.40234708979444
o           -4.31252927539638        6.61828784107487        5.19438944247997
h           -5.17171135788366        6.14970925454829        5.23067809521306
h           -3.79242908954939        6.22705135567226        5.91779478526453
o           -2.58466693280225        4.80571798703955        0.78646042273428
h           -3.43306104489086        4.94676945115345        0.31014099522581
h           -2.37473033647950        5.63184100019447        1.26868894669461
o            4.15396399730764       -2.54856487675183       -6.28005878025455
h            3.67540983690641       -3.39466572655309       -6.24472925543232
h            3.68888952065589       -1.97672286080571       -5.63379142591330
o           -5.90706804865974        6.28691068061900        1.87931181104315
h           -6.81965288369258        6.66191694632713        1.83589512937110
h           -5.99305868448145        5.50009942301698        2.43628927806812
o           -1.77886361136230        7.63585335956778       -1.40013711649959
h           -1.53428135855366        6.68604830778786       -1.38344228684836
h           -0.96888628030940        8.11524147719195       -1.17002004784905
o            5.76466151227180       -5.09766407895370       -5.27754215236514
h            6.68650762924544       -4.74820066777572       -5.29347808708640
h            5.35086324806245       -4.83084607330842       -6.10046085211712
o           -4.23858783015650        0.61072983923838       -5.45960201057402
h           -3.70314421413291        0.43844578262229       -6.24951969378794
h           -4.05715810438877       -0.07296076513082       -4.77300341117454
o           -1.83692928107517       -1.48127692237161        7.82521251689958
h           -2.10437618136212       -1.85149800302346        6.96280434401138
h           -1.63134928724827       -0.54660555328750        7.67652335119445
o           -5.72622582193779       -4.70656933603827       -6.02190255290548
h           -5.38712945149802       -5.42705769939329       -5.48021384846181
h           -4.98477728782684       -4.13302487504994       -6.25199924315806
o           -4.08095146658142       -4.77254029391770       -2.54580673150734
h           -4.53870763561186       -5.48703860922844       -3.02832816894058
h           -3.88400088615392       -5.11951654582653       -1.65381550186365
o           -7.45702041405941        3.89144429386297        0.32073819004261
h           -7.02036789547091        3.96012048919158        1.19285532253027
h           -8.12162387299940        3.18364429283073        0.41627077407950
o           -6.30444945959188       -5.67509824648111       -1.09688780143384
h           -6.77826431303253       -5.65785658458074       -1.94747098071959
h           -6.96865791836847       -6.01317339451523       -0.45819387589030
o            7.47896921972316       -0.97754707260611        5.50916951157568
h            7.04377956799879       -1.78892097422900        5.80604624143233
h            7.40992983112858       -1.00732733624315        4.52856163435316
o           -0.77006237095562        3.76331979785029       -6.93662915353984
h           -0.63418052576254        4.05608761538793       -6.01077759053760
h           -0.08053002822860        4.21066846994678       -7.43389981530451
o            7.26213883844010        3.38157024876793       -5.94177530093958
h            7.10035487905000        3.29433191456164       -4.97680723826634
h            7.19020275031394        2.48210040561783       -6.31589461762998
o          -12.22112654615951       -2.35474232083380       -1.25501159636365
h          -11.93102039087518       -1.46942980687042       -0.96358607660131
h          -12.28514239012065       -2.30522824842778       -2.21094495277520
o            4.26585842992627        3.87789752752023        2.80346908230212
h            3.37153830199850        3.51438839084522        2.59425222881314
h            4.51913328092783        3.44211230305105        3.63084649354050
o           -0.96293751056148        1.12635707340000        7.05315757282876
h           -0.24672038881012        1.65728191904212        7.41623486044355
h           -0.58015870897440        0.56330902403797        6.34767453628145
o           -2.65729362366391       -2.63082840811949        5.47579634107159
h           -2.35487574952154       -3.27620081364357        4.80964243797526
h           -3.40606607689503       -3.09313453082786        5.90780633949132
o            2.04235261831669       -5.85704650830030        5.83540979820760
h            1.72125080620734       -6.74730485960499        5.97678616159130
h            2.70756080380043       -5.89971959074138        5.11837208223267
o           -0.92490745528962        5.10763148422878       -1.27371265962863
h           -0.92258243800549        4.33314871348338       -1.84428659339248
h           -1.45836523159701        4.85470878199435       -0.48686358463018
o            2.18931901508160       -0.42948201105386        7.26931750277418
h            3.11200888957716       -0.71871810581959        7.36145556712569
h            1.61217517452690       -1.18527712373341        7.45838159873347
o           -4.53825119685454       -7.76695050220519       -1.69500387004247
h           -5.10480755399070       -7.12525001374020       -1.23109068108283