      -----------------------------------------------------------      
     |                   =====================                   |     
     |                           x T B                           |     
     |                   =====================                   |     
     |                         S. Grimme                         |     
     |          Mulliken Center for Theoretical Chemistry        |     
     |                    University of Bonn                     |     
      -----------------------------------------------------------      

   * xtb version 6.5.1 (579679a) compiled by 'ehlert@majestix' on 2022-07-11

   xtb is free software: you can redistribute it and/or modify it under
   the terms of the GNU Lesser General Public License as published by
   the Free Software Foundation, either version 3 of the License, or
   (at your option) any later version.
   
   xtb is distributed in the hope that it will be useful,
   but WITHOUT ANY WARRANTY; without even the implied warranty of
   MERCHANTABILITY or FITNESS FOR A PARTICULAR PURPOSE.  See the
   GNU Lesser General Public License for more details.
   
   Cite this work as:
   * C. Bannwarth, E. Caldeweyher, S. Ehlert, A. Hansen, P. Pracht,
     J. Seibert, S. Spicher, S. Grimme, WIREs Comput. Mol. Sci., 2020, 11,
     e01493. DOI: 10.1002/wcms.1493
   
   for GFN2-xTB:
   * C. Bannwarth, S. Ehlert and S. Grimme., J. Chem. Theory Comput., 2019,
     15, 1652-1671. DOI: 10.1021/acs.jctc.8b01176
   for GFN1-xTB:
   * S. Grimme, C. Bannwarth, P. Shushkov, J. Chem. Theory Comput., 2017,
     13, 1989-2009. DOI: 10.1021/acs.jctc.7b00118
   for GFN0-xTB:
   * P. Pracht, E. Caldeweyher, S. Ehlert, S. Grimme, ChemRxiv, 2019, preprint.
     DOI: 10.26434/chemrxiv.8326202.v1
   for GFN-FF:
   * S. Spicher and S. Grimme, Angew. Chem. Int. Ed., 2020, 59, 15665-15673.
     DOI: 10.1002/anie.202004239
   
   for ALPB and GBSA implicit solvation:
   * S. Ehlert, M. Stahn, S. Spicher, S. Grimme, J. Chem. Theory Comput.,
     2021, 17, 4250-4261. DOI: 10.1021/acs.jctc.1c00471
   
   for DFT-D4:
   * E. Caldeweyher, C. Bannwarth and S. Grimme, J. Chem. Phys., 2017,
     147, 034112. DOI: 10.1063/1.4993215
   * E. Caldeweyher, S. Ehlert, A. Hansen, H. Neugebauer, S. Spicher,
     C. Bannwarth and S. Grimme, J. Chem. Phys., 2019, 150, 154122.
     DOI: 10.1063/1.5090222
   * E. Caldeweyher, J.-M. Mewes, S. Ehlert and S. Grimme, Phys. Chem. Chem. Phys.
     2020, 22, 8499-8512. DOI: 10.1039/D0CP00502A
   
   for sTDA-xTB:
   * S. Grimme and C. Bannwarth, J. Chem. Phys., 2016, 145, 054103.
     DOI: 10.1063/1.4959605
   
   in the mass-spec context:
   * V. Asgeirsson, C. Bauer and S. Grimme, Chem. Sci., 2017, 8, 4879.
     DOI: 10.1039/c7sc00601b
   * J. Koopman and S. Grimme, ACS Omega 2019, 4, 12, 15120-15133.
     DOI: 10.1021/acsomega.9b02011
   
   for metadynamics refer to:
   * S. Grimme, J. Chem. Theory Comput., 2019, 155, 2847-2862
     DOI: 10.1021/acs.jctc.9b00143
   
   for SPH calculations refer to:
   * S. Spicher and S. Grimme, J. Chem. Theory Comput., 2021, 17, 1701-1714
     DOI: 10.1021/acs.jctc.0c01306
   
   with help from (in alphabetical order)
   P. Atkinson, C. Bannwarth, F. Bohle, G. Brandenburg, E. Caldeweyher
   M. Checinski, S. Dohm, S. Ehlert, S. Ehrlich, I. Gerasimov, C. Hölzer
   A. Katbashev, J. Koopman, C. Lavigne, S. Lehtola, F. März, M. Müller,
   F. Musil, H. Neugebauer, J. Pisarek, C. Plett, P. Pracht, F. Pultar,
   J. Seibert, P. Shushkov, S. Spicher, M. Stahn, M. Steiner, T. Strunk,
   J. Stückrath, T. Rose, and J. Unsleber
   
 * started run on 2022/09/27 at 18:19:54.408     

           -------------------------------------------------
          |                Calculation Setup                |
           -------------------------------------------------

          program call               : xtb -c 0 -u 0 water.xyz --opt extreme
          coordinate file            : water.xyz
          omp threads                :                    16

   ID    Z sym.   atoms
    1    8 O      1
    2    1 H      2, 3

           -------------------------------------------------
          |                 G F N 2 - x T B                 |
           -------------------------------------------------

        Reference                      10.1021/acs.jctc.8b01176
      * Hamiltonian:
        H0-scaling (s, p, d)           1.850000    2.230000    2.230000
        zeta-weighting                 0.500000
      * Dispersion:
        s8                             2.700000
        a1                             0.520000
        a2                             5.000000
        s9                             5.000000
      * Repulsion:
        kExp                           1.500000    1.000000
        rExp                           1.000000
      * Coulomb:
        alpha                          2.000000
        third order                    shell-resolved
        anisotropic                    true
        a3                             3.000000
        a5                             4.000000
        cn-shift                       1.200000
        cn-exp                         4.000000
        max-rad                        5.000000

q/qsh data taken from xtbrestart
CAMM data taken from xtbrestart

          ...................................................
          :                      SETUP                      :
          :.................................................:
          :  # basis functions                   6          :
          :  # atomic orbitals                   6          :
          :  # shells                            4          :
          :  # electrons                         8          :
          :  max. iterations                   250          :
          :  Hamiltonian                  GFN2-xTB          :
          :  restarted?                       true          :
          :  GBSA solvation                  false          :
          :  PC potential                    false          :
          :  electronic temp.          300.0000000     K    :
          :  accuracy                    1.0000000          :
          :  -> integral cutoff          0.2500000E+02      :
          :  -> integral neglect         0.1000000E-07      :
          :  -> SCF convergence          0.1000000E-05 Eh   :
          :  -> wf. convergence          0.1000000E-03 e    :
          :  Broyden damping             0.4000000          :
          ...................................................

 iter      E             dE          RMSdq      gap      omega  full diag
   1     -5.0946837 -0.509468E+01  0.312E-01   13.20       0.0  T
   2     -5.0947087 -0.249894E-04  0.164E-01   13.23       1.0  T
   3     -5.0947122 -0.349329E-05  0.450E-02   13.25       1.3  T
   4     -5.0947126 -0.434402E-06  0.857E-03   13.24       6.7  T
   5     -5.0947126 -0.337160E-08  0.613E-04   13.24      94.2  T
   6     -5.0947126 -0.194520E-09  0.208E-06   13.24   27750.5  T

   *** convergence criteria satisfied after 6 iterations ***

         #    Occupation            Energy/Eh            Energy/eV
      -------------------------------------------------------------
         1        2.0000           -0.6768023             -18.4167
         2        2.0000           -0.5634211             -15.3315
         3        2.0000           -0.5136476             -13.9771
         4        2.0000           -0.4457936             -12.1307 (HOMO)
         5                          0.0407183               1.1080 (LUMO)
         6                          0.1838344               5.0024
      -------------------------------------------------------------
                  HL-Gap            0.4865119 Eh           13.2387 eV
             Fermi-level           -0.2025377 Eh           -5.5113 eV

 SCC (total)                   0 d,  0 h,  0 min,  0.274 sec
 SCC setup                      ...        0 min,  0.026 sec (  9.582%)
 Dispersion                     ...        0 min,  0.017 sec (  6.195%)
 classical contributions        ...        0 min,  0.005 sec (  1.989%)
 integral evaluation            ...        0 min,  0.020 sec (  7.224%)
 iterations                     ...        0 min,  0.085 sec ( 31.196%)
 molecular gradient             ...        0 min,  0.099 sec ( 36.069%)
 printout                       ...        0 min,  0.021 sec (  7.729%)

         :::::::::::::::::::::::::::::::::::::::::::::::::::::
         ::                     SUMMARY                     ::
         :::::::::::::::::::::::::::::::::::::::::::::::::::::
         :: total energy              -5.068979981116 Eh    ::
         :: gradient norm              0.047430193811 Eh/a0 ::
         :: HOMO-LUMO gap             13.238663613328 eV    ::
         ::.................................................::
         :: SCC energy                -5.094712593672 Eh    ::
         :: -> isotropic ES            0.031380223644 Eh    ::
         :: -> anisotropic ES          0.000816049802 Eh    ::
         :: -> anisotropic XC         -0.000454033656 Eh    ::
         :: -> dispersion             -0.000141995518 Eh    ::
         :: repulsion energy           0.025732612518 Eh    ::
         :: add. restraining           0.000000000000 Eh    ::
         :: total charge              -0.000000000000 e     ::
         :::::::::::::::::::::::::::::::::::::::::::::::::::::

      ----------------------------------------------------------- 
     |                   =====================                   |
     |                        A N C O P T                        |
     |                   =====================                   |
     |               Approximate Normal Coordinate               |
     |                Rational Function Optimizer                |
      ----------------------------------------------------------- 

          ...................................................
          :                      SETUP                      :
          :.................................................:
          :   optimization level           extreme          :
          :   max. optcycles                   200          :
          :   ANC micro-cycles                  20          :
          :   degrees of freedom                 3          :
          :.................................................:
          :   RF solver                   davidson          :
          :   write xtbopt.log                true          :
          :   linear?                        false          :
          :   energy convergence         0.5000000E-07 Eh   :
          :   grad. convergence          0.5000000E-04 Eh/α :
          :   maximium RF displ.         1.0000000          :
          :   Hlow (freq-cutoff)         0.1000000E-01      :
          :   Hmax (freq-cutoff)         5.0000000          :
          :   S6 in model hess.         20.0000000          :
          ...................................................

generating ANC from model Hessian ...
Using Lindh-Hessian (1995)
 Shifting diagonal of input Hessian by   0.000000000000000E+000
 Lowest  eigenvalues of input Hessian
    0.000000    0.000000    0.000000    0.000000    0.000000    0.000000
    0.240586    1.109557    1.288769
 Highest eigenvalues
    0.000000    0.000000    0.000000    0.240586    1.109557    1.288769
 

........................................................................
.............................. CYCLE    1 ..............................
........................................................................
   1     -5.0947126 -0.509471E+01  0.912E-07   13.24       0.0  T
   2     -5.0947126  0.000000E+00  0.540E-07   13.24  100000.0  T
   3     -5.0947126  0.177636E-14  0.553E-08   13.24  100000.0  T
     SCC iter.                  ...        0 min,  0.026 sec
     gradient                   ...        0 min,  0.030 sec
 * total energy  :    -5.0689800 Eh     change        0.0000000E+00 Eh
   gradient norm :     0.0474302 Eh/α   predicted     0.0000000E+00 (    NaN%)
   displ. norm   :     0.0458880 α      lambda       -0.2080518E-02
   maximum displ.:     0.0424994 α      in ANC's #2, #1, #3, ...

........................................................................
.............................. CYCLE    2 ..............................
........................................................................
   1     -5.1020277 -0.510203E+01  0.202E-01   14.14       0.0  T
   2     -5.1020358 -0.810656E-05  0.110E-01   14.12       1.0  T
   3     -5.1020372 -0.135314E-05  0.261E-02   14.11       2.2  T
   4     -5.1020374 -0.167924E-06  0.530E-03   14.11      10.9  T
   5     -5.1020374 -0.149862E-08  0.270E-04   14.11     213.9  T
   6     -5.1020374 -0.224905E-10  0.228E-05   14.11    2532.5  T
     SCC iter.                  ...        0 min,  0.020 sec
     gradient                   ...        0 min,  0.000 sec
 * total energy  :    -5.0703649 Eh     change       -0.1384892E-02 Eh
   gradient norm :     0.0157303 Eh/α   predicted    -0.1042450E-02 ( -24.73%)
   displ. norm   :     0.0223251 α      lambda       -0.3441831E-03
   maximum displ.:     0.0215434 α      in ANC's #2, #1, #3, ...

........................................................................
.............................. CYCLE    3 ..............................
........................................................................
   1     -5.1052406 -0.510524E+01  0.106E-01   14.49       0.0  T
   2     -5.1052433 -0.276393E-05  0.562E-02   14.48       1.0  T
   3     -5.1052438 -0.457594E-06  0.151E-02   14.47       3.8  T
   4     -5.1052438 -0.481007E-07  0.264E-03   14.48      21.9  T
   5     -5.1052438 -0.209883E-09  0.117E-04   14.48     492.4  T
   6     -5.1052438 -0.181188E-11  0.833E-06   14.48    6930.8  T
     SCC iter.                  ...        0 min,  0.001 sec
     gradient                   ...        0 min,  0.000 sec
 * total energy  :    -5.0705334 Eh     change       -0.1685691E-03 Eh
   gradient norm :     0.0021177 Eh/α   predicted    -0.1721766E-03 (   2.14%)
   displ. norm   :     0.0074476 α      lambda       -0.1423105E-04
   maximum displ.:     0.0074448 α      in ANC's #1, #2, #3, ...

........................................................................
.............................. CYCLE    4 ..............................
........................................................................
   1     -5.1049897 -0.510499E+01  0.132E-02   14.42       0.0  T
   2     -5.1049897 -0.121972E-07  0.766E-03   14.42       7.5  T
   3     -5.1049897 -0.157475E-08  0.965E-04   14.42      59.8  T
   4     -5.1049897 -0.379316E-09  0.140E-04   14.42     413.0  T
     SCC iter.                  ...        0 min,  0.001 sec
     gradient                   ...        0 min,  0.000 sec
 * total energy  :    -5.0705430 Eh     change       -0.9594295E-05 Eh
   gradient norm :     0.0006709 Eh/α   predicted    -0.7116117E-05 ( -25.83%)
   displ. norm   :     0.0064944 α      lambda       -0.2823853E-05
   maximum displ.:     0.0064709 α      in ANC's #1, #2, #3, ...

........................................................................
.............................. CYCLE    5 ..............................
........................................................................
   1     -5.1048715 -0.510487E+01  0.123E-02   14.38       0.0  T
   2     -5.1048716 -0.222805E-07  0.686E-03   14.38       8.4  T
   3     -5.1048716 -0.297702E-08  0.138E-03   14.38      41.9  T
   4     -5.1048716 -0.473878E-09  0.187E-04   14.38     308.9  T
   5     -5.1048716 -0.131983E-11  0.559E-06   14.38   10335.7  T
     SCC iter.                  ...        0 min,  0.001 sec
     gradient                   ...        0 min,  0.000 sec
 * total energy  :    -5.0705441 Eh     change       -0.1056998E-05 Eh
   gradient norm :     0.0003379 Eh/α   predicted    -0.1411193E-05 (  33.51%)
   displ. norm   :     0.0021641 α      lambda       -0.4743143E-06
   maximum displ.:     0.0021571 α      in ANC's #1, #2, #3, ...

........................................................................
.............................. CYCLE    6 ..............................
........................................................................
   1     -5.1049135 -0.510491E+01  0.407E-03   14.39       0.0  T
   2     -5.1049135 -0.240925E-08  0.228E-03   14.39      25.3  T
   3     -5.1049135 -0.320584E-09  0.452E-04   14.39     127.7  T
   4     -5.1049135 -0.518057E-10  0.615E-05   14.39     939.5  T
     SCC iter.                  ...        0 min,  0.001 sec
     gradient                   ...        0 min,  0.000 sec
 * total energy  :    -5.0705444 Eh     change       -0.3535115E-06 Eh
   gradient norm :     0.0000027 Eh/α   predicted    -0.2356921E-06 ( -33.33%)
   displ. norm   :     0.0000051 α      lambda        0.8696808E-09
   maximum displ.:     0.0000050 α      in ANC's #2, #1, #3, ...

........................................................................
.............................. CYCLE    7 ..............................
........................................................................
   1     -5.1049127 -0.510491E+01  0.249E-05   14.39       0.0  T
   2     -5.1049127 -0.154543E-12  0.133E-05   14.39    4338.1  T
   3     -5.1049127 -0.266454E-13  0.361E-06   14.39   16004.4  T
     SCC iter.                  ...        0 min,  0.001 sec
     gradient                   ...        0 min,  0.000 sec
 * total energy  :    -5.0705444 Eh     change       -0.5424994E-11 Eh
   gradient norm :     0.0000009 Eh/α   predicted    -0.4436250E-11 ( -18.23%)
   displ. norm   :     0.0000014 α      lambda       -0.4207734E-08
   maximum displ.:     0.0000013 α      in ANC's #2, #1, #3, ...

   *** GEOMETRY OPTIMIZATION CONVERGED AFTER 7 ITERATIONS ***

------------------------------------------------------------------------
 total energy gain   :        -0.0015645 Eh       -0.9817 kcal/mol
 total RMSD          :         0.0370751 a0        0.0196 Å
 total power (kW/mol):        -0.5867864 (step)  -21.4259 (real)
------------------------------------------------------------------------

 ANCopt (total)                0 d,  0 h,  0 min,  0.192 sec
 optimizer setup                ...        0 min,  0.007 sec (  3.899%)
 model hessian                  ...        0 min,  0.015 sec (  7.830%)
 ANC generation                 ...        0 min,  0.001 sec (  0.600%)
 coordinate transformation      ...        0 min,  0.000 sec (  0.032%)
 single point calculation       ...        0 min,  0.117 sec ( 61.113%)
 optimization log               ...        0 min,  0.023 sec ( 12.038%)
 hessian update                 ...        0 min,  0.000 sec (  0.038%)
 rational function              ...        0 min,  0.019 sec (  9.993%)

================
 final structure:
================
3
 xtb: 6.5.1 (579679a)
O           -8.00064844296966        4.69707991013351       -0.00379442788943
H           -7.60174976112640        4.53221351286053        0.85281976745013
H           -8.75065179590393        4.10485657700595       -0.08659213956070
 
 Bond Distances (Angstroems)
 ---------------------------
O1-H2=0.9592         O1-H3=0.9592         H2-O1=0.9592         H3-O1=0.9592         
 O  H  Rav=0.9592 sigma=0.0000  Rmin=0.9592  Rmax=0.9592     2
 
 selected bond angles (degree)
 --------------------
H3-O1-H2=107.23                
 
 selected dihedral angles (degree)
 ---------------------------------

           -------------------------------------------------
          |                Final Singlepoint                |
           -------------------------------------------------

          ...................................................
          :                      SETUP                      :
          :.................................................:
          :  # basis functions                   6          :
          :  # atomic orbitals                   6          :
          :  # shells                            4          :
          :  # electrons                         8          :
          :  max. iterations                   250          :
          :  Hamiltonian                  GFN2-xTB          :
          :  restarted?                      false          :
          :  GBSA solvation                  false          :
          :  PC potential                    false          :
          :  electronic temp.          300.0000000     K    :
          :  accuracy                    1.0000000          :
          :  -> integral cutoff          0.2500000E+02      :
          :  -> integral neglect         0.1000000E-07      :
          :  -> SCF convergence          0.1000000E-05 Eh   :
          :  -> wf. convergence          0.1000000E-03 e    :
          :  Broyden damping             0.4000000          :
          ...................................................

 iter      E             dE          RMSdq      gap      omega  full diag
   1     -5.1049127 -0.510491E+01  0.634E-07   14.39       0.0  T
   2     -5.1049127  0.177636E-14  0.395E-07   14.39  100000.0  T
   3     -5.1049127 -0.266454E-14  0.153E-08   14.39  100000.0  T

   *** convergence criteria satisfied after 3 iterations ***

         #    Occupation            Energy/Eh            Energy/eV
      -------------------------------------------------------------
         1        2.0000           -0.6800834             -18.5060
         2        2.0000           -0.5683060             -15.4644
         3        2.0000           -0.5108703             -13.9015
         4        2.0000           -0.4463859             -12.1468 (HOMO)
         5                          0.0824281               2.2430 (LUMO)
         6                          0.2514896               6.8434
      -------------------------------------------------------------
                  HL-Gap            0.5288140 Eh           14.3898 eV
             Fermi-level           -0.1819789 Eh           -4.9519 eV

 SCC (total)                   0 d,  0 h,  0 min,  0.111 sec
 SCC setup                      ...        0 min,  0.019 sec ( 17.171%)
 Dispersion                     ...        0 min,  0.004 sec (  3.930%)
 classical contributions        ...        0 min,  0.008 sec (  7.606%)
 integral evaluation            ...        0 min,  0.006 sec (  5.619%)
 iterations                     ...        0 min,  0.038 sec ( 34.375%)
 molecular gradient             ...        0 min,  0.031 sec ( 28.203%)
 printout                       ...        0 min,  0.003 sec (  3.050%)

         :::::::::::::::::::::::::::::::::::::::::::::::::::::
         ::                     SUMMARY                     ::
         :::::::::::::::::::::::::::::::::::::::::::::::::::::
         :: total energy              -5.070544447046 Eh    ::
         :: gradient norm              0.000000919225 Eh/a0 ::
         :: HOMO-LUMO gap             14.389762596836 eV    ::
         ::.................................................::
         :: SCC energy                -5.104912721524 Eh    ::
         :: -> isotropic ES            0.031459145897 Eh    ::
         :: -> anisotropic ES          0.000395703154 Eh    ::
         :: -> anisotropic XC         -0.000881538524 Eh    ::
         :: -> dispersion             -0.000141084480 Eh    ::
         :: repulsion energy           0.034368274452 Eh    ::
         :: add. restraining           0.000000000000 Eh    ::
         :: total charge              -0.000000000000 e     ::
         :::::::::::::::::::::::::::::::::::::::::::::::::::::

           -------------------------------------------------
          |                Property Printout                |
           -------------------------------------------------

    * Orbital Energies and Occupations

         #    Occupation            Energy/Eh            Energy/eV
      -------------------------------------------------------------
         1        2.0000           -0.6800834             -18.5060
         2        2.0000           -0.5683060             -15.4644
         3        2.0000           -0.5108703             -13.9015
         4        2.0000           -0.4463859             -12.1468 (HOMO)
         5                          0.0824281               2.2430 (LUMO)
         6                          0.2514896               6.8434
      -------------------------------------------------------------
                  HL-Gap            0.5288140 Eh           14.3898 eV
             Fermi-level           -0.1819789 Eh           -4.9519 eV

     #   Z          covCN         q      C6AA      α(0)
     1   8 O        1.611    -0.565    24.358     6.661
     2   1 H        0.805     0.282     0.776     1.384
     3   1 H        0.805     0.282     0.776     1.384

 Mol. C6AA /au·bohr⁶  :         44.535250
 Mol. C8AA /au·bohr⁸  :        795.736485
 Mol. α(0) /au        :          9.429121


Wiberg/Mayer (AO) data.
largest (>0.10) Wiberg bond orders for each atom

 ---------------------------------------------------------------------------
     #   Z sym  total        # sym  WBO       # sym  WBO       # sym  WBO
 ---------------------------------------------------------------------------
     1   8 O    1.840 --     3 H    0.920     2 H    0.920
     2   1 H    0.920 --     1 O    0.920
     3   1 H    0.920 --     1 O    0.920
 ---------------------------------------------------------------------------

Topologies differ in total number of bonds
Writing topology from bond orders to xtbtopo.mol

molecular dipole:
                 x           y           z       tot (Debye)
 q only:       -0.187      -0.404       0.413
   full:       -0.269      -0.580       0.593       2.217
molecular quadrupole (traceless):
                xx          xy          yy          xz          yz          zz
 q only:        9.417       7.239     -10.357      -8.751       5.362       0.940
  q+dip:       13.499      10.315     -14.822     -12.665       7.718       1.323
   full:       13.526      10.474     -14.906     -12.521       7.654       1.380

           -------------------------------------------------
          |                Geometry Summary                 |
           -------------------------------------------------

      molecular mass/u    :       18.0152864
   center of mass at/Å    :       -8.0202932       4.6547218       0.0395000
  moments of inertia/u·Å² :        0.5797247E+00   0.1202022E+01   0.1781747E+01
rotational constants/cm⁻¹ :        0.2907869E+02   0.1402439E+02   0.9461294E+01

 * 2 selected distances

     #   Z          #   Z                                           value/Å
     1   8 O        2   1 H                                       0.9592128 (max)
     1   8 O        3   1 H                                       0.9592128 (min)

 * 1 distinct bonds (by element types)

   Z      Z             #   av. dist./Å        max./Å        min./Å
   1 H    8 O           2     0.9592128     0.9592128     0.9592128


optimized geometry written to: xtbopt.xyz


           -------------------------------------------------
          | TOTAL ENERGY               -5.070544447046 Eh   |
          | GRADIENT NORM               0.000000919225 Eh/α |
          | HOMO-LUMO GAP              14.389762596836 eV   |
           -------------------------------------------------

------------------------------------------------------------------------
 * finished run on 2022/09/27 at 18:19:55.415     
------------------------------------------------------------------------
 total:
 * wall-time:     0 d,  0 h,  0 min,  1.003 sec
 *  cpu-time:     0 d,  0 h,  0 min, 14.323 sec
 * ratio c/w:    14.276 speedup
 SCF:
 * wall-time:     0 d,  0 h,  0 min,  0.280 sec
 *  cpu-time:     0 d,  0 h,  0 min,  4.328 sec
 * ratio c/w:    15.450 speedup
 ANC optimizer:
 * wall-time:     0 d,  0 h,  0 min,  0.332 sec
 *  cpu-time:     0 d,  0 h,  0 min,  5.304 sec
 * ratio c/w:    16.000 speedup

