3
 energy: -5.068979981116 gnorm: 0.047430204079 xtb: 6.5.1 (579679a)
O           -7.99301000000000        4.71355000000000       -0.02062790000000
H           -7.59750000000000        4.52698000000000        0.86783400000000
H           -8.76254000000000        4.09362000000000       -0.08477290000000
3
 energy: -5.070364873090 gnorm: 0.015730314334 xtb: 6.5.1 (579679a)
O           -7.99700184995472        4.70494286273489       -0.01183095000115
H           -7.60518306166628        4.52768319576452        0.85552153716235
H           -8.75086508837900        4.10152394150060       -0.08125738716119
3
 energy: -5.070533442236 gnorm: 0.002117738267 xtb: 6.5.1 (579679a)
O           -7.99991387638550        4.69866391702648       -0.00541346811715
H           -7.60500857610737        4.53034593662111        0.85126501324709
H           -8.74812754750712        4.10514014635241       -0.08341834512994
3
 energy: -5.070543036531 gnorm: 0.000670930996 xtb: 6.5.1 (579679a)
O           -8.00034218946533        4.69774030320784       -0.00446942226832
H           -7.60292418250954        4.53150342239313        0.85232219753179
H           -8.74978362802513        4.10490627439903       -0.08541957526347
3
 energy: -5.070544093529 gnorm: 0.000337914434 xtb: 6.5.1 (579679a)
O           -8.00080077968304        4.69675141775849       -0.00345867291267
H           -7.60116157993245        4.53256821385006        0.85307054021164
H           -8.75108764038451        4.10483036839145       -0.08717866729897
3
 energy: -5.070544447041 gnorm: 0.000002690024 xtb: 6.5.1 (579679a)
O           -8.00064910290027        4.69707848701035       -0.00379297325088
H           -7.60174981742227        4.53221408076276        0.85281872426956
H           -8.75065107967746        4.10485743222689       -0.08659255101869
3
 energy: -5.070544447046 gnorm: 0.000000936605 xtb: 6.5.1 (579679a)
O           -8.00064844296966        4.69707991013351       -0.00379442788943
H           -7.60174976112640        4.53221351286053        0.85281976745013
H           -8.75065179590393        4.10485657700595       -0.08659213956070
