      -----------------------------------------------------------      
     |                   =====================                   |     
     |                           x T B                           |     
     |                   =====================                   |     
     |                         S. Grimme                         |     
     |          Mulliken Center for Theoretical Chemistry        |     
     |                    University of Bonn                     |     
      -----------------------------------------------------------      

   * xtb version 6.5.1 (579679a) compiled by 'ehlert@majestix' on 2022-07-11

   xtb is free software: you can redistribute it and/or modify it under
   the terms of the GNU Lesser General Public License as published by
   the Free Software Foundation, either version 3 of the License, or
   (at your option) any later version.
   
   xtb is distributed in the hope that it will be useful,
   but WITHOUT ANY WARRANTY; without even the implied warranty of
   MERCHANTABILITY or FITNESS FOR A PARTICULAR PURPOSE.  See the
   GNU Lesser General Public License for more details.
   
   Cite this work as:
   * C. Bannwarth, E. Caldeweyher, S. Ehlert, A. Hansen, P. Pracht,
     J. Seibert, S. Spicher, S. Grimme, WIREs Comput. Mol. Sci., 2020, 11,
     e01493. DOI: 10.1002/wcms.1493
   
   for GFN2-xTB:
   * C. Bannwarth, S. Ehlert and S. Grimme., J. Chem. Theory Comput., 2019,
     15, 1652-1671. DOI: 10.1021/acs.jctc.8b01176
   for GFN1-xTB:
   * S. Grimme, C. Bannwarth, P. Shushkov, J. Chem. Theory Comput., 2017,
     13, 1989-2009. DOI: 10.1021/acs.jctc.7b00118
   for GFN0-xTB:
   * P. Pracht, E. Caldeweyher, S. Ehlert, S. Grimme, ChemRxiv, 2019, preprint.
     DOI: 10.26434/chemrxiv.8326202.v1
   for GFN-FF:
   * S. Spicher and S. Grimme, Angew. Chem. Int. Ed., 2020, 59, 15665-15673.
     DOI: 10.1002/anie.202004239
   
   for ALPB and GBSA implicit solvation:
   * S. Ehlert, M. Stahn, S. Spicher, S. Grimme, J. Chem. Theory Comput.,
     2021, 17, 4250-4261. DOI: 10.1021/acs.jctc.1c00471
   
   for DFT-D4:
   * E. Caldeweyher, C. Bannwarth and S. Grimme, J. Chem. Phys., 2017,
     147, 034112. DOI: 10.1063/1.4993215
   * E. Caldeweyher, S. Ehlert, A. Hansen, H. Neugebauer, S. Spicher,
     C. Bannwarth and S. Grimme, J. Chem. Phys., 2019, 150, 154122.
     DOI: 10.1063/1.5090222
   * E. Caldeweyher, J.-M. Mewes, S. Ehlert and S. Grimme, Phys. Chem. Chem. Phys.
     2020, 22, 8499-8512. DOI: 10.1039/D0CP00502A
   
   for sTDA-xTB:
   * S. Grimme and C. Bannwarth, J. Chem. Phys., 2016, 145, 054103.
     DOI: 10.1063/1.4959605
   
   in the mass-spec context:
   * V. Asgeirsson, C. Bauer and S. Grimme, Chem. Sci., 2017, 8, 4879.
     DOI: 10.1039/c7sc00601b
   * J. Koopman and S. Grimme, ACS Omega 2019, 4, 12, 15120-15133.
     DOI: 10.1021/acsomega.9b02011
   
   for metadynamics refer to:
   * S. Grimme, J. Chem. Theory Comput., 2019, 155, 2847-2862
     DOI: 10.1021/acs.jctc.9b00143
   
   for SPH calculations refer to:
   * S. Spicher and S. Grimme, J. Chem. Theory Comput., 2021, 17, 1701-1714
     DOI: 10.1021/acs.jctc.0c01306
   
   with help from (in alphabetical order)
   P. Atkinson, C. Bannwarth, F. Bohle, G. Brandenburg, E. Caldeweyher
   M. Checinski, S. Dohm, S. Ehlert, S. Ehrlich, I. Gerasimov, C. Hölzer
   A. Katbashev, J. Koopman, C. Lavigne, S. Lehtola, F. März, M. Müller,
   F. Musil, H. Neugebauer, J. Pisarek, C. Plett, P. Pracht, F. Pultar,
   J. Seibert, P. Shushkov, S. Spicher, M. Stahn, M. Steiner, T. Strunk,
   J. Stückrath, T. Rose, and J. Unsleber
   
 * started run on 2022/11/17 at 06:48:47.986     

           -------------------------------------------------
          |                Calculation Setup                |
           -------------------------------------------------

          program call               : xtb solvent_cluster.coord --gfn2 --input xcontrol --opt 1
          hostname                   : cn0363
          coordinate file            : solvent_cluster.coord
          omp threads                :                     2

   ID    Z sym.   atoms
    1    8 o      1, 4, 7, 10, 13, 16, 19, 22, 25, 28, 31, 34, 37, 40, 43,
                  46, 49, 52, 55, 58, 61, 64, 67, 70, 73, 76, 79, 82, 85, 88,
                  91, 94, 97, 100, 103, 106, 109, 112, 115, 118, 121, 124,
                  127, 130, 133, 136, 139, 142, 145, 148, 151, 154, 157, 160,
                  163, 166, 169, 172, 175, 178, 181, 184, 187, 190, 193, 196,
                  199, 202, 205, 208, 211, 214, 217, 220, 223, 226, 229, 232,
                  235, 238, 241, 244, 247, 250, 253, 256, 259, 262, 265, 268,
                  271, 274, 277, 280, 283, 286, 289, 292, 295, 298, 301, 304,
                  307, 310, 313, 316, 319, 322, 325, 328, 331, 334, 337, 340,
                  343, 346, 349, 352, 355, 358, 361, 364, 367, 370, 373, 376,
                  379, 382, 385, 388, 391, 394, 397, 400, 403, 406, 409, 412,
                  415, 418, 421, 424, 427, 430, 433, 436, 439, 442, 445, 448,
                  451, 454, 457, 460, 463, 466, 469, 472, 475, 478, 481, 484,
                  487, 490, 493, 496, 499, 502, 505, 508, 511, 514, 517, 520,
                  523, 526, 529
    2    1 h      2, 3, 5, 6, 8, 9, 11, 12, 14, 15, 17, 18, 20, 21, 23, 24,
                  26, 27, 29, 30, 32, 33, 35, 36, 38, 39, 41, 42, 44, 45, 47,
                  48, 50, 51, 53, 54, 56, 57, 59, 60, 62, 63, 65, 66, 68, 69,
                  71, 72, 74, 75, 77, 78, 80, 81, 83, 84, 86, 87, 89, 90, 92,
                  93, 95, 96, 98, 99, 101, 102, 104, 105, 107, 108, 110, 111,
                  113, 114, 116, 117, 119, 120, 122, 123, 125, 126, 128, 129,
                  131, 132, 134, 135, 137, 138, 140, 141, 143, 144, 146, 147,
                  149, 150, 152, 153, 155, 156, 158, 159, 161, 162, 164, 165,
                  167, 168, 170, 171, 173, 174, 176, 177, 179, 180, 182, 183,
                  185, 186, 188, 189, 191, 192, 194, 195, 197, 198, 200, 201,
                  203, 204, 206, 207, 209, 210, 212, 213, 215, 216, 218, 219,
                  221, 222, 224, 225, 227, 228, 230, 231, 233, 234, 236, 237,
                  239, 240, 242, 243, 245, 246, 248, 249, 251, 252, 254, 255,
                  257, 258, 260, 261, 263, 264, 266, 267, 269, 270, 272, 273,
                  275, 276, 278, 279, 281, 282, 284, 285, 287, 288, 290, 291,
                  293, 294, 296, 297, 299, 300, 302, 303, 305, 306, 308, 309,
                  311, 312, 314, 315, 317, 318, 320, 321, 323, 324, 326, 327,
                  329, 330, 332, 333, 335, 336, 338, 339, 341, 342, 344, 345,
                  347, 348, 350, 351, 353, 354, 356, 357, 359, 360, 362, 363,
                  365, 366, 368, 369, 371, 372, 374, 375, 377, 378, 380, 381,
                  383, 384, 386, 387, 389, 390, 392, 393, 395, 396, 398, 399,
                  401, 402, 404, 405, 407, 408, 410, 411, 413, 414, 416, 417,
                  419, 420, 422, 423, 425, 426, 428, 429, 431, 432, 434, 435,
                  437, 438, 440, 441, 443, 444, 446, 447, 449, 450, 452, 453,
                  455, 456, 458, 459, 461, 462, 464, 465, 467, 468, 470, 471,
                  473, 474, 476, 477, 479, 480, 482, 483, 485, 486, 488, 489,
                  491, 492, 494, 495, 497, 498, 500, 501, 503, 504, 506, 507,
                  509, 510, 512, 513, 515, 516, 518, 519, 521, 522, 524, 525,
                  527, 528, 530, 531

molecular fragmentation (1/2 indicates fragments):
111222222222222222222222222222222222222222222222222222222222222222222222
222222222222222222222222222222222222222222222222222222222222222222222222
222222222222222222222222222222222222222222222222222222222222222222222222
222222222222222222222222222222222222222222222222222222222222222222222222
222222222222222222222222222222222222222222222222222222222222222222222222
222222222222222222222222222222222222222222222222222222222222222222222222
222222222222222222222222222222222222222222222222222222222222222222222222
222222222222222222222222222
# atoms in fragment 1/2:     3   528
 fragment masses (1/2) :       18.02     3170.69
CMA distance (Bohr)    :   6.448
constraining FC (au)   :  0.0500

           -------------------------------------------------
          |                 G F N 2 - x T B                 |
           -------------------------------------------------

        Reference                      10.1021/acs.jctc.8b01176
      * Hamiltonian:
        H0-scaling (s, p, d)           1.850000    2.230000    2.230000
        zeta-weighting                 0.500000
      * Dispersion:
        s8                             2.700000
        a1                             0.520000
        a2                             5.000000
        s9                             5.000000
      * Repulsion:
        kExp                           1.500000    1.000000
        rExp                           1.000000
      * Coulomb:
        alpha                          2.000000
        third order                    shell-resolved
        anisotropic                    true
        a3                             3.000000
        a5                             4.000000
        cn-shift                       1.200000
        cn-exp                         4.000000
        max-rad                        5.000000


          ...................................................
          :                      SETUP                      :
          :.................................................:
          :  # basis functions                1062          :
          :  # atomic orbitals                1062          :
          :  # shells                          708          :
          :  # electrons                      1416          :
          :  max. iterations                   250          :
          :  Hamiltonian                  GFN2-xTB          :
          :  restarted?                      false          :
          :  GBSA solvation                  false          :
          :  PC potential                    false          :
          :  electronic temp.          300.0000000     K    :
          :  accuracy                    1.0000000          :
          :  -> integral cutoff          0.2500000E+02      :
          :  -> integral neglect         0.1000000E-07      :
          :  -> SCF convergence          0.1000000E-05 Eh   :
          :  -> wf. convergence          0.1000000E-03 e    :
          :  Broyden damping             0.4000000          :
          ...................................................

 iter      E             dE          RMSdq      gap      omega  full diag
   1   -906.5856940 -0.906586E+03  0.406E+00    8.67       0.0  T
   2   -906.6435424 -0.578484E-01  0.241E+00    7.62       1.0  T
   3   -906.6663942 -0.228519E-01  0.216E-01    6.15       1.0  T
   4   -906.6704032 -0.400900E-02  0.465E-02    6.55       1.0  T
   5   -906.6704796 -0.763584E-04  0.314E-02    6.48       1.0  T
   6   -906.6705101 -0.304661E-04  0.428E-03    6.52       1.0  T
   7   -906.6705118 -0.172424E-05  0.741E-04    6.51       5.9  T
   8   -906.6705118 -0.189943E-07  0.392E-04    6.51      11.1  T
   9   -906.6705118 -0.106260E-07  0.614E-05    6.51      70.6  T

   *** convergence criteria satisfied after 9 iterations ***

         #    Occupation            Energy/Eh            Energy/eV
      -------------------------------------------------------------
         1        2.0000           -0.6873631             -18.7041
       ...           ...                  ...                  ...
       702        2.0000           -0.3567129              -9.7067
       703        2.0000           -0.3556428              -9.6775
       704        2.0000           -0.3548426              -9.6558
       705        2.0000           -0.3500874              -9.5264
       706        2.0000           -0.3479715              -9.4688
       707        2.0000           -0.3438748              -9.3573
       708        2.0000           -0.3204396              -8.7196 (HOMO)
       709                         -0.0810605              -2.2058 (LUMO)
       710                         -0.0758237              -2.0633
       711                         -0.0551927              -1.5019
       712                         -0.0518329              -1.4104
       713                         -0.0429338              -1.1683
       ...                                ...                  ...
      1062                          0.4721785              12.8486
      -------------------------------------------------------------
                  HL-Gap            0.2393791 Eh            6.5138 eV
             Fermi-level           -0.2007501 Eh           -5.4627 eV

 SCC (total)                   0 d,  0 h,  0 min,  7.560 sec
 SCC setup                      ...        0 min,  0.021 sec (  0.284%)
 Dispersion                     ...        0 min,  0.051 sec (  0.669%)
 classical contributions        ...        0 min,  0.012 sec (  0.153%)
 integral evaluation            ...        0 min,  0.310 sec (  4.106%)
 iterations                     ...        0 min,  2.368 sec ( 31.328%)
 molecular gradient             ...        0 min,  4.771 sec ( 63.109%)
 printout                       ...        0 min,  0.027 sec (  0.351%)

         :::::::::::::::::::::::::::::::::::::::::::::::::::::
         ::                     SUMMARY                     ::
         :::::::::::::::::::::::::::::::::::::::::::::::::::::
         :: total energy            -901.184576665662 Eh    ::
         :: gradient norm              0.105566699042 Eh/a0 ::
         :: HOMO-LUMO gap              6.513838111655 eV    ::
         ::.................................................::
         :: SCC energy              -906.670511824392 Eh    ::
         :: -> isotropic ES            5.087841219940 Eh    ::
         :: -> anisotropic ES         -1.100581177339 Eh    ::
         :: -> anisotropic XC         -0.093111354123 Eh    ::
         :: -> dispersion             -0.534861164807 Eh    ::
         :: repulsion energy           5.389732636237 Eh    ::
         :: add. restraining           0.000000000000 Eh    ::
         :: total charge               0.000000000000 e     ::
         :::::::::::::::::::::::::::::::::::::::::::::::::::::

      ----------------------------------------------------------- 
     |                       L-ANC optimizer                     |
      ----------------------------------------------------------- 
          low memory version by Sebastian Ehlert

          ...................................................
          :                      SETUP                      :
          :.................................................:
          :   energy convergence        0.1000000E-05 Eh    :
          :   grad. convergence         0.8000000E-03 Eh/a0 :
          :   optimization log               true           :
          :   writing optlog all                1     steps :
          :   Hessian reset                    20     steps :
          :   maximium step len.        1.0000000     a0    :
          :   LBFGS images                     20           :
          ...................................................
 * calculating model hessian...
Using Lindh-Hessian (1995)
 Shifting diagonal of input Hessian by   1.000000000000020E-002
 Lowest  eigenvalues of input Hessian
   -0.000000   -0.000000   -0.000000   -0.000000   -0.000000   -0.000000
   -0.000000   -0.000000   -0.000000   -0.000000   -0.000000   -0.000000
   -0.000000   -0.000000   -0.000000   -0.000000   -0.000000   -0.000000
 Highest eigenvalues
    0.312361    0.327208    1.225248    1.243019    1.414268    1.455160
 

........................................................................
.............................. CYCLE    1 ..............................
........................................................................
   1   -906.6686039 -0.906669E+03  0.287E-02    6.53       0.0  T
   2   -906.6686133 -0.945518E-05  0.176E-02    6.55       1.0  T
   3   -906.6686168 -0.354149E-05  0.195E-03    6.56       2.2  T
   4   -906.6686171 -0.262554E-06  0.529E-04    6.56       8.2  T
   5   -906.6686171 -0.473460E-08  0.736E-05    6.56      59.0  T
     SCC iter.                  ...        0 min,  1.268 sec
     gradient                   ...        0 min,  4.781 sec
 * total energy  :  -901.1867181 Eh     change       -0.2141433E-02 Eh
   gradient norm :     0.0124336 Eh/a0  converged?    E=F G=F D=F
   step length   :     0.3676639 a0

........................................................................
.............................. CYCLE    2 ..............................
........................................................................
   1   -906.6659410 -0.906666E+03  0.273E-02    6.57       0.0  T
   2   -906.6659598 -0.188290E-04  0.162E-02    6.61       1.0  T
   3   -906.6659644 -0.456119E-05  0.302E-03    6.64       1.4  T
   4   -906.6659649 -0.568196E-06  0.690E-04    6.63       6.3  T
   5   -906.6659649 -0.122678E-07  0.118E-04    6.63      36.8  T
     SCC iter.                  ...        0 min,  1.251 sec
     gradient                   ...        0 min,  4.797 sec
 * total energy  :  -901.1878426 Eh     change       -0.1124467E-02 Eh
   gradient norm :     0.0210016 Eh/a0  converged?    E=F G=F D=F
   step length   :     0.5399476 a0

........................................................................
.............................. CYCLE    3 ..............................
........................................................................
   1   -906.6698817 -0.906670E+03  0.128E-02    6.64       0.0  T
   2   -906.6698830 -0.127704E-05  0.790E-03    6.64       1.0  T
   3   -906.6698836 -0.638712E-06  0.681E-04    6.65       6.4  T
   4   -906.6698836 -0.193066E-07  0.201E-04    6.65      21.6  T
     SCC iter.                  ...        0 min,  0.975 sec
     gradient                   ...        0 min,  4.793 sec
 * total energy  :  -901.1882186 Eh     change       -0.3760001E-03 Eh
   gradient norm :     0.0115302 Eh/a0  converged?    E=F G=F D=F
   step length   :     0.1651754 a0

........................................................................
.............................. CYCLE    4 ..............................
........................................................................
   1   -906.6705902 -0.906671E+03  0.152E-02    6.63       0.0  T
   2   -906.6705923 -0.204902E-05  0.919E-03    6.64       1.0  T
   3   -906.6705929 -0.635689E-06  0.940E-04    6.64       4.6  T
   4   -906.6705930 -0.654549E-07  0.273E-04    6.64      15.9  T
     SCC iter.                  ...        0 min,  0.962 sec
     gradient                   ...        0 min,  4.819 sec
 * total energy  :  -901.1884678 Eh     change       -0.2491875E-03 Eh
   gradient norm :     0.0148310 Eh/a0  converged?    E=F G=F D=F
   step length   :     0.2271256 a0

........................................................................
.............................. CYCLE    5 ..............................
........................................................................
   1   -906.6713710 -0.906671E+03  0.561E-03    6.63       0.0  T
   2   -906.6713713 -0.327612E-06  0.338E-03    6.64       1.3  T
   3   -906.6713714 -0.119633E-06  0.389E-04    6.64      11.2  T
   4   -906.6713714 -0.853402E-08  0.116E-04    6.64      37.5  T
     SCC iter.                  ...        0 min,  0.955 sec
     gradient                   ...        0 min,  4.851 sec
 * total energy  :  -901.1886269 Eh     change       -0.1591361E-03 Eh
   gradient norm :     0.0055280 Eh/a0  converged?    E=F G=F D=F
   step length   :     0.1177901 a0

........................................................................
.............................. CYCLE    6 ..............................
........................................................................
   1   -906.6706650 -0.906671E+03  0.852E-03    6.62       0.0  T
   2   -906.6706656 -0.617001E-06  0.518E-03    6.63       1.0  T
   3   -906.6706658 -0.214315E-06  0.512E-04    6.64       8.5  T
   4   -906.6706658 -0.186274E-07  0.143E-04    6.63      30.3  T
     SCC iter.                  ...        0 min,  0.928 sec
     gradient                   ...        0 min,  4.876 sec
 * total energy  :  -901.1887132 Eh     change       -0.8626975E-04 Eh
   gradient norm :     0.0067809 Eh/a0  converged?    E=F G=F D=F
   step length   :     0.1760413 a0

........................................................................
.............................. CYCLE    7 ..............................
........................................................................
   1   -906.6719035 -0.906672E+03  0.459E-03    6.62       0.0  T
   2   -906.6719037 -0.174242E-06  0.279E-03    6.62       1.6  T
   3   -906.6719037 -0.593224E-07  0.268E-04    6.62      16.2  T
   4   -906.6719037 -0.514490E-08  0.798E-05    6.62      54.4  T
     SCC iter.                  ...        0 min,  0.944 sec
     gradient                   ...        0 min,  4.887 sec
 * total energy  :  -901.1887777 Eh     change       -0.6452210E-04 Eh
   gradient norm :     0.0036587 Eh/a0  converged?    E=F G=F D=F
   step length   :     0.0859413 a0

........................................................................
.............................. CYCLE    8 ..............................
........................................................................
   1   -906.6721764 -0.906672E+03  0.648E-03    6.61       0.0  T
   2   -906.6721766 -0.219652E-06  0.394E-03    6.61       1.1  T
   3   -906.6721767 -0.699841E-07  0.289E-04    6.61      15.0  T
   4   -906.6721767 -0.683667E-08  0.810E-05    6.61      53.6  T
     SCC iter.                  ...        0 min,  0.974 sec
     gradient                   ...        0 min,  4.887 sec
 * total energy  :  -901.1888300 Eh     change       -0.5227155E-04 Eh
   gradient norm :     0.0050297 Eh/a0  converged?    E=F G=F D=F
   step length   :     0.0942236 a0

........................................................................
.............................. CYCLE    9 ..............................
........................................................................
   1   -906.6725511 -0.906673E+03  0.689E-03    6.60       0.0  T
   2   -906.6725516 -0.462775E-06  0.416E-03    6.60       1.0  T
   3   -906.6725517 -0.104193E-06  0.438E-04    6.59       9.9  T
   4   -906.6725517 -0.170236E-07  0.955E-05    6.59      45.4  T
     SCC iter.                  ...        0 min,  0.972 sec
     gradient                   ...        0 min,  4.862 sec
 * total energy  :  -901.1888865 Eh     change       -0.5655120E-04 Eh
   gradient norm :     0.0036605 Eh/a0  converged?    E=F G=F D=F
   step length   :     0.1070539 a0

........................................................................
.............................. CYCLE   10 ..............................
........................................................................
   1   -906.6717054 -0.906672E+03  0.819E-03    6.59       0.0  T
   2   -906.6717056 -0.225356E-06  0.499E-03    6.59       1.0  T
   3   -906.6717057 -0.929259E-07  0.291E-04    6.59      14.9  T
   4   -906.6717057 -0.498380E-08  0.886E-05    6.59      49.0  T
     SCC iter.                  ...        0 min,  0.976 sec
     gradient                   ...        0 min,  4.864 sec
 * total energy  :  -901.1889263 Eh     change       -0.3981835E-04 Eh
   gradient norm :     0.0055423 Eh/a0  converged?    E=F G=F D=F
   step length   :     0.1141469 a0

........................................................................
.............................. CYCLE   11 ..............................
........................................................................
   1   -906.6716237 -0.906672E+03  0.577E-03    6.61       0.0  T
   2   -906.6716240 -0.330099E-06  0.348E-03    6.61       1.2  T
   3   -906.6716241 -0.871164E-07  0.367E-04    6.60      11.8  T
   4   -906.6716241 -0.114004E-07  0.920E-05    6.60      47.2  T
     SCC iter.                  ...        0 min,  1.086 sec
     gradient                   ...        0 min,  4.950 sec
 * total energy  :  -901.1889825 Eh     change       -0.5618646E-04 Eh
   gradient norm :     0.0027255 Eh/a0  converged?    E=F G=F D=F
   step length   :     0.1369653 a0

........................................................................
.............................. CYCLE   12 ..............................
........................................................................
   1   -906.6712118 -0.906671E+03  0.662E-03    6.62       0.0  T
   2   -906.6712119 -0.189188E-06  0.402E-03    6.62       1.1  T
   3   -906.6712120 -0.552548E-07  0.261E-04    6.62      16.6  T
   4   -906.6712120 -0.620241E-08  0.734E-05    6.62      59.1  T
     SCC iter.                  ...        0 min,  1.024 sec
     gradient                   ...        0 min,  4.860 sec
 * total energy  :  -901.1890220 Eh     change       -0.3953121E-04 Eh
   gradient norm :     0.0038283 Eh/a0  converged?    E=F G=F D=F
   step length   :     0.0967890 a0

........................................................................
.............................. CYCLE   13 ..............................
........................................................................
   1   -906.6717782 -0.906672E+03  0.585E-03    6.64       0.0  T
   2   -906.6717787 -0.459944E-06  0.351E-03    6.65       1.2  T
   3   -906.6717788 -0.724600E-07  0.427E-04    6.65      10.2  T
   4   -906.6717788 -0.168371E-07  0.803E-05    6.65      54.1  T
     SCC iter.                  ...        0 min,  0.982 sec
     gradient                   ...        0 min,  4.856 sec
 * total energy  :  -901.1890554 Eh     change       -0.3332118E-04 Eh
   gradient norm :     0.0029700 Eh/a0  converged?    E=F G=F D=F
   step length   :     0.1017825 a0

........................................................................
.............................. CYCLE   14 ..............................
........................................................................
   1   -906.6713587 -0.906671E+03  0.704E-03    6.65       0.0  T
   2   -906.6713588 -0.117544E-06  0.427E-03    6.65       1.0  T
   3   -906.6713588 -0.458881E-07  0.212E-04    6.65      20.4  T
   4   -906.6713588 -0.277885E-08  0.656E-05    6.65      66.2  T
     SCC iter.                  ...        0 min,  0.986 sec
     gradient                   ...        0 min,  4.836 sec
 * total energy  :  -901.1890650 Eh     change       -0.9630201E-05 Eh
   gradient norm :     0.0045026 Eh/a0  converged?    E=F G=F D=F
   step length   :     0.0947553 a0

........................................................................
.............................. CYCLE   15 ..............................
........................................................................
   1   -906.6720619 -0.906672E+03  0.161E-03    6.65       0.0  T
   2   -906.6720620 -0.263431E-07  0.970E-04    6.65       4.5  T
   3   -906.6720620 -0.967191E-08  0.113E-04    6.65      38.5  T
     SCC iter.                  ...        0 min,  0.736 sec
     gradient                   ...        0 min,  4.832 sec
 * total energy  :  -901.1890803 Eh     change       -0.1533091E-04 Eh
   gradient norm :     0.0013822 Eh/a0  converged?    E=F G=F D=F
   step length   :     0.0181355 a0

........................................................................
.............................. CYCLE   16 ..............................
........................................................................
   1   -906.6724307 -0.906672E+03  0.549E-03    6.65       0.0  T
   2   -906.6724307 -0.816245E-07  0.332E-03    6.65       1.3  T
   3   -906.6724308 -0.376095E-07  0.180E-04    6.65      24.1  T
   4   -906.6724308 -0.198258E-08  0.617E-05    6.65      70.3  T
     SCC iter.                  ...        0 min,  0.960 sec
     gradient                   ...        0 min,  4.811 sec
 * total energy  :  -901.1890901 Eh     change       -0.9773828E-05 Eh
   gradient norm :     0.0011541 Eh/a0  converged?    E=F G=F D=F
   step length   :     0.0794591 a0

........................................................................
.............................. CYCLE   17 ..............................
........................................................................
   1   -906.6722687 -0.906672E+03  0.204E-03    6.66       0.0  T
   2   -906.6722687 -0.150612E-07  0.124E-03    6.66       3.5  T
   3   -906.6722687 -0.587966E-08  0.724E-05    6.66      59.9  T
   4   -906.6722687 -0.338559E-09  0.214E-05    6.66     202.9  T
     SCC iter.                  ...        0 min,  0.965 sec
     gradient                   ...        0 min,  4.792 sec
 * total energy  :  -901.1890924 Eh     change       -0.2323308E-05 Eh
   gradient norm :     0.0006967 Eh/a0  converged?    E=F G=T D=F
   step length   :     0.0356651 a0

........................................................................
.............................. CYCLE   18 ..............................
........................................................................
   1   -906.6720614 -0.906672E+03  0.223E-03    6.66       0.0  T
   2   -906.6720614 -0.136355E-07  0.135E-03    6.66       3.2  T
   3   -906.6720614 -0.690477E-08  0.773E-05    6.66      56.2  T
   4   -906.6720614 -0.318892E-09  0.270E-05    6.66     161.0  T
     SCC iter.                  ...        0 min,  0.960 sec
     gradient                   ...        0 min,  4.797 sec
 * total energy  :  -901.1890919 Eh     change        0.4785220E-06 Eh
   gradient norm :     0.0011193 Eh/a0  converged?    E=F G=F D=F
   step length   :     0.0312503 a0

........................................................................
.............................. CYCLE   19 ..............................
........................................................................
   1   -906.6722721 -0.906672E+03  0.805E-04    6.66       0.0  T
   2   -906.6722721 -0.597061E-08  0.489E-04    6.66       8.9  T
   3   -906.6722721 -0.278760E-08  0.520E-05    6.66      83.4  T
     SCC iter.                  ...        0 min,  0.717 sec
     gradient                   ...        0 min,  4.786 sec
 * total energy  :  -901.1890935 Eh     change       -0.1566513E-05 Eh
   gradient norm :     0.0003115 Eh/a0  converged?    E=F G=T D=F
   step length   :     0.0104297 a0

........................................................................
.............................. CYCLE   20 ..............................
........................................................................
   1   -906.6722348 -0.906672E+03  0.715E-04    6.66       0.0  T
   2   -906.6722348 -0.181365E-08  0.434E-04    6.66      10.0  T
   3   -906.6722348 -0.731802E-09  0.280E-05    6.66     154.8  T
     SCC iter.                  ...        0 min,  0.701 sec
     gradient                   ...        0 min,  4.782 sec
 * total energy  :  -901.1890936 Eh     change       -0.1108201E-06 Eh
   gradient norm :     0.0005791 Eh/a0  converged?    E=T G=T D=F
   step length   :     0.0094823 a0

   *** GEOMETRY OPTIMIZATION CONVERGED AFTER 20 CYCLES ***

------------------------------------------------------------------------
 total energy gain   :        -0.0045170 Eh       -2.8344 kcal/mol
 total RMSD          :         0.0702652 a0        0.0372 Å
 total power (kW/mol):        -0.5929629 (step)   -0.0917 (real)
------------------------------------------------------------------------

 L-ANCopt (total)              0 d,  0 h,  2 min,  9.365 sec
 setup                          ...        0 min,  0.016 sec (  0.013%)
 model hessian                  ...        0 min,  3.929 sec (  3.037%)
 ANC generation                 ...        0 min,  0.897 sec (  0.693%)
 coordinate transformation      ...        0 min,  0.001 sec (  0.001%)
 Rational function              ...        0 min,  0.000 sec (  0.000%)
 singlepoint calculation        ...        2 min,  4.418 sec ( 96.176%)
 optimization log               ...        0 min,  0.098 sec (  0.076%)
 hessian update                 ...        0 min,  0.000 sec (  0.000%)

================
 final structure:
================
$coord
       -1.15205040802400       -5.50211767357500       -2.84281517690301      o
       -2.65566300392400       -6.48797747299300       -2.42466772948600      h
       -0.02947549068900       -6.75236714839200       -3.59719847561100      h
       -1.40783750779500      -11.57365060698200        0.75056617928000      o
       -1.29522880329400      -10.18840946037600        1.96189055894000      h
        0.29596062404500      -12.06348404653700        0.26417523950300      h
        2.82619605196200        4.78898184060300       -0.26888657195900      o
        3.80179480388100        3.69883629391000        0.86853803903100      h
        2.00953741549700        6.03189179123100        0.77241333159300      h
        6.77039281941200       -2.26911473973800       -0.44537133946400      o
        6.01702167568600       -3.91154001269800       -0.67331271944700      h
        8.43557716671300       -2.45101681863700       -1.17778960494300      h
       -9.80198261977500        3.69078735356100       12.96666688096200      o
       -8.74956656640900        4.70422025920000       11.85942917104900      h
       -8.79399268970900        2.25286141641800       13.50847555769900      h
        1.10332209910200       -9.03149467439300       -5.80525428246900      o
        0.03228487766100       -8.79541802873400       -7.29730761673300      h
        2.81439696804100       -8.82716321861600       -6.44102863112400      h
       -8.52672382388500       -9.22971648857300        5.64064563620900      o
       -7.34620306397900      -10.59989369516700        5.89016383905100      h
       -8.34887913721000       -8.12840596873000        7.12162731841500      h
       10.25350036677700       -6.28264384849000        8.13217181970400      o
       10.59335004040000       -5.04985893498100        6.81750720108400      h
        8.43804725943800       -6.21252958753400        8.40658990618800      h
       -2.74423639632600       -7.80880509812500        4.03827974939800      o
       -4.09307718646100       -6.58757779312000        3.83459604972400      h
       -3.42304339551600       -9.15346288557400        5.07576572338000      h
        0.93413409525600        3.67503983750200        5.68104958478400      o
       -0.58623475147100        4.73237737766700        5.57620273573400      h
        2.35820614778500        4.68127828376400        5.08182486186200      h
       -0.73018196889300        0.55527172766300       -4.64355017730700      o
       -0.78493660574200       -0.60767567449900       -6.03969770205200      h
       -2.45046706485500        0.79443702569500       -4.04711757984500      h
        4.76393611320300        6.82625906411800        4.95312910044500      o
        5.63513823194100        6.04785754040100        6.38530147365000      h
        6.07550334702600        7.15985851640700        3.69620661061700      h
       -0.79582292859700        8.63007045881000       -3.46811158797700      o
       -0.44114663600600        8.74877913215700       -1.66319584499900      h
       -2.52765063317300        8.01192343469200       -3.59962993081000      h
       -7.56183067447000        6.73065090552100        3.09789849114100      o
       -8.27165457922400        5.58594821912800        4.35723325299400      h
       -8.52981790203900        6.42114070245600        1.56602874923200      h
       -0.88826667532900        0.74165461890800      -10.28940536636100      o
       -2.41146263409000        0.79828525133500       -9.27868722703600      h
       -0.89495628232400        2.27136966240800      -11.33407463710700      h
       -0.51652609562200       13.30647778251100       -5.78000158000000      o
       -0.64298367942000       11.67046731883400       -4.92569839905800      h
       -0.06514663328500       14.48974549341000       -4.47678819607600      h
       -5.43266325748800       -0.64938273273500       -7.70975954749100      o
       -6.38400035028000        0.80358650332000       -7.03440980003600      h
       -4.99731423266400       -1.70275178340100       -6.29573752507800      h
       -0.85397567008100       -3.72883947772100       -7.59811348393900      o
       -0.93500025662500       -5.02700315977300       -8.89261844717200      h
       -1.65898783197900       -4.47307023812800       -6.11752608209200      h
        5.17774832765900        1.51656815997700        2.79301134236200      o
        6.60160756775500        2.37866119908500        3.60178198568100      h
        5.88378662983400        0.25555019030900        1.67037233912900      h
        8.24959022729000       -2.63197553783800        4.67657501174600      o
        9.23946569907400       -1.49657096886600        3.62005758883100      h
        8.38350651764600       -4.31752745573400        3.89045908132900      h
       -4.90052827629100       11.04889204366000       -7.21574900138400      o
       -4.35272307468400       12.74438942841200       -7.56357864980800      h
       -3.62004384939000        9.99416736558200       -8.04872730113200      h
        3.99911542079500       -0.31782522268600       -9.04807186329200      o
        4.47555193282500        1.43579622998200       -9.31993917104500      h
        2.18109603084600       -0.29835308701700       -9.30042748171000      h
        9.24834769562800        3.77880284859600        4.73355912516000      o
       10.43196558219500        4.27311154262400        3.42964758992100      h
       10.14169212562200        2.68940013786700        5.91017055438100      h
       15.55340119018000       -2.84033621550600        0.35972279893500      o
       15.96603816346900       -1.04584333839300        0.10837161993700      h
       17.12482335597700       -3.75975935360500        0.03256885509400      h
       -8.85741383142600       -0.35222411352300        1.69720352099000      o
      -10.26858630376500       -1.49181002089900        1.32405869141100      h
       -7.61344777834900       -1.46195270919200        2.49264189772600      h
        4.59412393930200        1.06503681790900       -3.77268354558500      o
        3.44006075336600        2.38723281079800       -4.34096856958700      h
        5.72015883467900        1.85603567980200       -2.54471841250300      h
       -7.76180607061600       -6.24735354954600        9.63969011782600      o
       -6.40550384685800       -5.08377261335800        9.19528189287700      h
       -9.15222449732600       -5.26176911173400       10.34430138721400      h
       -5.00971665808200       -3.85125426988300      -11.67908985998400      o
       -3.41406539634800       -4.03413334163300      -12.55395555942800      h
       -4.70309129647800       -2.63316974977300      -10.33825246874700      h
      -10.66485675140300        5.37386038923900       -9.45925579511900      o
       -9.97052356747200        4.48370458227900       -7.97941023448400      h
      -11.62890771855900        4.08241931541000      -10.33792690997300      h
       16.85452511621500       -6.79191784639400        7.54250200188100      o
       16.38316658523800       -6.39441902133100        9.25449467348600      h
       15.83898706758500       -8.23137797304400        7.01691170950900      h
       10.34005591472300       -5.99983914407100       -6.95735928694300      o
       10.57697754812800       -4.61971657209900       -8.16192291766300      h
        8.69808935705200       -6.71996716506700       -7.39798546747800      h
      -16.93507249952500       -5.59648445229900        0.68892643686200      o
      -17.05765326197100       -7.32565420271500        0.14992729279400      h
      -15.28760579772500       -5.42416667810000        1.49958925616000      h
       -5.25443813609800        0.87440587280700       -2.37282251225200      o
       -6.04148575186300       -0.74953449983800       -2.02977370418400      h
       -5.09860636585200        1.75267887626200       -0.79479634990400      h
       -0.50808493792800      -13.78203672584100       -4.82520119213000      o
        0.27883480027100      -14.39100329953700       -3.30565260117200      h
        0.21913612349900      -12.10983818957000       -5.11543051868900      h
        3.41132553220400       -3.74745996738400        4.03531052430300      o
        5.12423180504800       -3.04045596819500        4.01268308789400      h
        2.42206575014200       -2.67418218859200        5.20100795242000      h
       11.78842145900200       -9.66662294256600       -3.44214486616500      o
       12.16622260979200       -8.82178728938600       -1.84410857053800      h
       11.50075220125700       -8.35857730526800       -4.69513522217500      h
        5.96271515408700       -0.32422901902500        8.62153447183300      o
        4.17327185676900       -0.65198105470400        8.40033343930900      h
        6.85276389314200       -1.03216367574100        7.17461296863000      h
      -12.00532919838600       -4.21405760519600        0.81878347229100      o
      -11.05469973161700       -5.58323621200200        1.55720926311200      h
      -12.25068379639000       -4.70897584695900       -0.94630377711200      h
       12.50842058859400        0.87421889670800       -3.73404740955800      o
       13.47274565010600        2.46478989006400       -3.90926634904900      h
       12.18380908242400        0.63715078818800       -1.94304395903200      h
       -3.46577931958000        4.39838231673100       -7.56948448975300      o
       -4.64779654439400        4.27103823622400       -8.97321539856000      h
       -4.36919016966100        5.06714917001500       -6.13026484849300      h
        8.23932319824200       -7.06763982998800        2.47004457825700      o
        9.95216078181400       -7.30205873547900        1.82591985679800      h
        7.11407677552100       -7.13730925210200        1.04107649221400      h
        2.41480121311300       -3.67637176132600       12.01638388259500      o
        0.66606446259600       -3.20253057869500       12.24821045371500      h
        3.34532233527900       -2.17084939779900       12.51698736884500      h
        9.35798913997200       -1.07050418341900       12.29328160000700      o
        8.95778204320400        0.02785668189900       13.67331887655200      h
        7.85271937970300       -1.05275739456400       11.22059216811400      h
       -3.23128691565500       -3.87825857256200        8.38268547272800      o
       -3.13260310524300       -3.08535836271600       10.05119990095600      h
       -2.30674129005500       -5.47313845269900        8.54598445367800      h
        1.61642009654800        4.77329738980100       -5.84827956344900      o
        0.39766135793500        3.38057797646100       -5.76143033527200      h
        0.85160650932000        6.15616099471100       -4.90498875272900      h
       -0.74317130955300       14.25662758033100        4.39521153800100      o
       -2.32422008553400       13.35153918669900        4.41933769867600      h
        0.48919875128400       13.17974640142300        5.23401912187200      h
       -8.32225197885500       -7.86944348477900        0.76366146421300      o
       -6.77299543597200       -8.39986221819100       -0.12863475992900      h
       -8.09751078967400       -8.28024283299700        2.54321740847300      h
       -7.63798231428200       -0.82635726278200        8.34564057552300      o
       -9.05115187640500       -1.84542043189800        7.73086798438800      h
       -7.91503366074300        0.82244276653200        7.62622417089500      h
       14.45699405053800        5.35403949992100       -4.62628055030200      o
       12.83061796835300        6.19033173685500       -4.72981401090400      h
       14.92474299897200        5.00789087290000       -6.39719869935500      h
       -7.77872730396600       -0.45028529646200      -14.18152402089200      o
       -6.93042483911700       -1.86674660906600      -13.31217978886700      h
       -7.38493371861800       -0.61647946002100      -15.93716643568500      h
      -14.30697844423600       -0.15575960822700        3.55958945382500      o
      -15.70187768877300        0.23452569163700        4.70131424846200      h
      -15.00668998456200       -0.58041228453400        1.90511706077500      h
        3.95150350640500        1.03937427621100       13.55271396620500      o
        3.31450933568100        1.19397716050800       15.23745508225400      h
        2.87825914836200        2.10474859577300       12.48729087678500      h
      -13.50431135759700        3.93523028068100       -3.79601047085800      o
      -13.65105793094700        5.69825398808700       -4.33918391372300      h
      -15.02500431197700        3.68529780285700       -2.74638402527000      h
       -9.87574621347100        2.81472723620100        5.45378087788600      o
      -11.36923947374500        3.77358955768400        4.94583834044600      h
       -9.59502200869300        1.57283588244100        4.09122060328100      h
       13.94998374495500       -3.83424525800700       10.84505719255600      o
       13.09324400712200       -2.82786826289500       12.08936921590300      h
       12.60312401916100       -4.80813562699200       10.03990457885500      h
       16.69073349202500        1.97923225858200       -0.76295300727800      o
       17.97781121584900        1.61118684616200       -1.99684047496700      h
       17.55542311398600        2.77361463793800        0.67072637267100      h
      -17.02227718137400        6.50163093346100        5.83600214170200      o
      -18.17973359853000        7.69711272967400        5.12723863814600      h
      -15.91467628314200        6.00179812450700        4.44311650391000      h
        2.85152532555900        1.83838831906700      -14.47238493260300      o
        1.37376330343400        2.76196786630600      -14.98781473697500      h
        3.50343626784000        2.82733295323400      -13.06997795804800      h
       -4.90633272884800      -10.29639113007200       11.21611959157100      o
       -6.15479924458600       -8.97179477666900       10.98713018261600      h
       -3.28112869835000       -9.44697626179200       11.16660549604900      h
        7.90491595406000        7.95122373852600        1.19835937224500      o
        9.53730311427200        8.71877661353000        0.85493314357500      h
        7.88673302703900        6.32723845181900        0.33699391183200      h
       -8.51977859082600        2.78297367143100       -5.81625639506900      o
       -7.63877782106500        3.67164924471600       -4.47464365305500      h
       -9.67588421165300        1.57439135385400       -5.00778922718600      h
      -11.75594662797900        7.46335358533700        6.88597476165200      o
      -11.71212682891900        8.38170780430000        5.29996382818900      h
      -13.51467214105200        7.29253608592300        7.31667768943800      h
       -9.13608101054800        9.54407785417700       -1.88371889922100      o
       -9.81440888257400        9.65699325023900       -3.60871230842400      h
       -7.85142777866200       10.84560864917000       -1.77007436468500      h
       -9.70690761409500        4.14155623807400       -0.65688470324700      o
       -9.33182223797700        2.44201809937900       -0.07534883226100      h
      -10.99229424900100        3.98211683510400       -1.98903379200400      h
       11.23932335168700       -0.05783658069500        1.38879806305400      o
       11.83352510366800       -1.70682561321700        0.90316662756800      h
       12.59282213978700        0.69531516036800        2.43389140398800      h
        6.94777482860800       13.49558516025400        4.82061414676100      o
        7.51966297323500       15.20717095307500        4.92391920091200      h
        8.44842009084100       12.42546901637500        4.98137487824000      h
        4.70756367006400       -6.94565588135800       -1.61794316898700      o
        4.08429370302100       -5.88274246610700       -2.99956645453700      h
        5.47203807189300       -8.42220245178300       -2.43822331159900      h
       -0.10830220671200        8.71124856121000        1.66024580156800      o
       -1.50833002045500        9.53913331064200        2.52429010970700      h
        1.34464344140600        9.84256855576100        1.73794111088600      h
       -2.48397861559700       -1.38111736849800       12.69908962773600      o
       -4.08027352535900       -1.51542409399800       13.59214254029000      h
       -2.67464457184000        0.15102502326000       11.69087626025400      h
       -6.51763072698900       -4.13901479099800        4.16193855231000      o
       -5.55185286023100       -3.39069515987900        5.52508373413500      h
       -8.21005753006100       -4.40815220310100        4.81928239036600      h
       10.30949644132500       -1.95243110352100      -10.03342363728900      o
        9.09885373797100       -2.06587765581600      -11.42780774914600      h
        9.63519104543500       -0.63336839304100       -8.92588495790600      h
      -11.29670168782400       -3.46255591576300        5.98155957117300      o
      -12.32722633470700       -2.28582758393700        4.98772558688600      h
      -12.46958394508500       -4.59198073723000        6.78647139693800      h
        3.60696500204900       -3.78326057359300       -5.31454623957200      o
        4.19019028992300       -2.05181329333800       -5.16480623808400      h
        2.00071799476000       -3.67658651469600       -6.24603658535900      h
        6.30484843471900       -2.02687906317100      -13.08141624471900      o
        5.76706666590300       -0.82386618332800      -14.33420372844400      h
        5.35799292717200       -1.51199674906700      -11.53709132815000      h
      -15.57819180514300        1.21979307122900       -7.54679360296000      o
      -14.52054505611200        2.00366729571900       -6.23808764137000      h
      -14.60878973786600        1.20708682285400       -9.09382863012700      h
       15.67909192054100       -2.57446293100300       -5.58513031323400      o
       14.46143585667300       -1.35135498169400       -4.88577782896400      h
       15.69192378448000       -2.24088580998400       -7.39187856239300      h
       11.10958945666000       -4.01080773652300       -2.37113198836200      o
       10.75131893101400       -4.58622462008300       -4.08363881339100      h
       12.91592913780900       -3.83024323702000       -2.23979084966700      h
      -16.64359907415500       -3.54864214403300       -6.30991398969000      o
      -16.11631109243100       -1.84037303889400       -6.83386799179500      h
      -18.24587244640900       -3.26855753552200       -5.47552022473500      h
        1.00309733642000       -1.07691203737700        7.36827880434600      o
        0.70787028244600        0.59463806022200        6.65330060176800      h
       -0.63468537026700       -1.88649545352700        7.61420882900400      h
        8.64771188297100        1.65744978932000       -6.79123560335900      o
       10.00409649613400        1.18498865370700       -5.61033979729200      h
        7.04592564691800        1.22707043647300       -5.95670061937300      h
       -0.55400266217000        9.13191514408600        9.73638436050700      o
        0.77207979987700       10.05449384673100        8.84588103332300      h
        0.23077800395300        7.64064909289600       10.46048861717900      h
        7.38640372339500        8.59152419682600       -9.86041123063400      o
        6.08740038772600        9.75269461012000       -9.26913753720300      h
        8.28493517937600        8.05926019251100       -8.34364546522700      h
        2.58705162916500       -8.54258675760200        2.67850997074200      o
        2.65689441908400       -6.85866121080100        3.39982002646900      h
        2.89639236330800       -8.28586577208600        0.88825863284500      h
      -15.64507574739700       -0.89977678273600       -1.30712785787500      o
      -16.03278435887400       -2.67088316587900       -1.05809688364200      h
      -14.08610237012100       -0.83185125679800       -2.29685292372500      h
      -14.81471084679600        8.68922545160000       -4.94713769427700      o
      -13.76549881621900        9.59005914294200       -6.12432561954800      h
      -16.25264590318900        7.95084666317700       -5.85687717892500      h
       -0.09208834880800       14.10162112105900       -0.62647096759200      o
        1.51431587215200       13.23327017661300       -0.62019688185400      h
       -0.35944854867700       14.58063427990100        1.13909688428400      h
       15.02923245190100        1.70075540094100        4.06397219279600      o
       15.82936012877800        0.85441961111500        5.48743844094900      h
       15.07046210356800        3.49073229186000        4.40559072757600      h
       20.04464780799500       -1.04088899001400       -3.68726588138000      o
       21.10639549099300       -0.57930227633000       -5.07526662615900      h
       18.44225230010800       -1.68538929601800       -4.42046598430900      h
       11.28438991010300       10.88808267630400        4.96456467347100      o
       11.63072311194900       11.28762990760400        3.20743248812300      h
       12.38872263993400        9.44595275900600        5.26174472992300      h
       12.55427809596400        5.05921190510000        0.70029366473500      o
       13.34564199376200        6.28921351628000        1.78580861052100      h
       13.92678270944600        4.05363248432100        0.03850390283200      h
        3.21258430568200      -13.21964176521900       -0.81248599458000      o
        4.39409636101900      -12.60602129029500       -2.06380568923200      h
        4.18259542955400      -13.40751378621200        0.72797641833700      h
       13.57157660459600       -3.49004722916500        5.13096121496200      o
       14.72723929180200       -4.57372048659100        6.05950085175600      h
       14.49092332350000       -2.98125364400600        3.62737790509000      h
        6.08128038684100      -12.21081473172100        3.44422440034600      o
        5.26237343192000      -10.58088466537700        3.16414060555100      h
        6.16639755551900      -12.36785151482100        5.26437817622800      h
      -21.08426358702600       -2.74222450053900        1.32581379026000      o
      -19.67993691206600       -3.92977371136500        1.19944788103700      h
      -21.42493290282400       -2.26160914359800       -0.41076405645200      h
      -11.82555887133200       -3.56923119088700       11.38137477411600      o
      -12.14652826276000       -1.84026489951600       10.78642084506800      h
      -13.23359160123400       -4.55331471499700       10.78278683895100      h
      -14.65366014253900      -10.19428743914700       -0.86112543611600      o
      -14.19878555609100       -9.81047147849900        0.88594172754100      h
      -13.44493330420100      -11.46800988481600       -1.36672774922300      h
       -1.21535974164900       -8.07937067458300      -10.20672921451700      o
       -2.89472239642300       -8.87702367671700      -10.41307029595300      h
       -0.17516068661000       -8.62872493689500      -11.58215240050200      h
       13.08644945967600       -7.55977514472200        1.06410517829100      o
       14.00039811536900       -5.98535960086400        0.99906762905900      h
       13.50304434661500       -8.38046482439600        2.67290700530100      h
      -10.12613532769700       -2.79214825614400       -8.51204794306500      o
      -10.14585296522400       -4.50767724996300       -9.22613551270100      h
       -8.36816676665200       -2.25413523003600       -8.47627476906300      h
       -9.84879114306600      -12.23970607108100       -1.34956811239400      o
       -8.64569733816600      -13.33877484833700       -0.50997566751100      h
       -9.61929539338100      -10.62728336266800       -0.46579268410000      h
       17.43685025996800       -0.80636281517500        7.88375947825100      o
       18.42892543322800       -1.95212858957700        6.86797825193800      h
       16.38059101783800       -1.81550598376100        8.99234621495300      h
        5.67566914553400      -11.28807353248700        8.55032023012500      o
        6.88463571752900      -11.69818166411800        9.82919361198600      h
        5.51162315969500       -9.44205887909800        8.53667818662500      h
      -13.31756522379700       -8.60534134006400        3.83386596298600      o
      -11.67241894162300       -9.10265917927000        4.47662783109800      h
      -14.24163132009900       -7.95250127717100        5.26969431339500      h
       -7.26615615984700       -3.75110837340200       -2.22855555187700      o
       -7.66944424690500       -5.03106245627400       -0.97481034729300      h
       -6.62937070784200       -4.64377575502800       -3.70447962333100      h
      -15.39388010796200       -6.23818102576800        8.08935770142500      o
      -16.74571293501900       -5.08525905686100        7.49717421852200      h
      -16.22444249512900       -7.48443702399500        9.10457236730100      h
       16.78427057447600       -7.61867443359100       -4.34632027801000      o
       15.37441957275300       -8.76465867278600       -4.18370673429900      h
       16.14421984383800       -6.03745082413400       -5.01443455846900      h
       10.13259938626200        8.01718709190200        9.84262170902800      o
       10.14076001735200        9.15370181950000        8.42519835206100      h
        8.77131028948600        6.81079029851000        9.55961438819200      h
      -12.61046184562100        1.20513217366900        9.68101338122500      o
      -11.87993565332000        2.24903257880000       11.04087588589900      h
      -11.70526426381200        1.69906224296200        8.15730910942800      h
       -3.57379078326200        4.58030517486700        1.21534048477400      o
       -4.95888797149000        5.44244418080200        2.12944476336700      h
       -2.10512448078400        5.62805586770700        1.48788846954600      h
      -20.23724575674300       -0.81759176424200       -3.49878732128400      o
      -18.61253048931100       -0.34380783255900       -2.74315976276100      h
      -20.90554448636000        0.69193438527600       -4.23918052827900      h
      -19.04909746632000       -3.19686573739000        6.65584368137800      o
      -18.63623489679100       -1.45018497299000        7.05842394758200      h
      -20.01482653109500       -3.18470566290000        5.11625269328500      h
      -18.48774246327200        5.51594627271000       -6.45666274624100      o
      -17.72651542887500        4.02566893331700       -7.20706630156400      h
      -18.71088387830600        5.10163029700100       -4.68364667181700      h
       15.20800659404800       -1.12760412777400      -10.46542112523900      o
       13.35570782501100       -1.37302669392900      -10.48432739059900      h
       15.82639060094900       -1.69446199729000      -12.06625950102200      h
       -4.38922068401000      -12.22059128750200        6.62298237305200      o
       -2.61413344273300      -12.62288541896200        6.46873563709100      h
       -4.63641802748700      -11.80937158637500        8.42683240413600      h
       -4.53141653857200       -9.07033405668300       -2.10909512551600      o
       -5.00909755135700      -10.12067254382800       -3.54777761463100      h
       -3.32502345509000      -10.09440816466700       -1.13152841110400      h
       -4.74329419635300       12.20932945701400       -1.95902878139500      o
       -4.68522358878400       11.79611901161400       -3.74954024460500      h
       -3.13681134843200       13.04414695030500       -1.59863136617000      h
        9.43409869520800        6.56275662960300       -5.53952065891900      o
        9.13438155562500        4.85339041741900       -6.18316067852200      h
        7.86511249538600        7.01187075291200       -4.56667984315900      h
        3.67129232442800       -6.37994984856300      -12.42546106006100      o
        2.12159912200300       -5.39194270347100      -12.58664390605100      h
        4.97046938506000       -5.20760170533400      -12.98288342416700      h
       -5.93798814937700      -13.96630983614100        1.61763207398600      o
       -5.93656587019600      -13.97819321393400        3.43443036724600      h
       -4.26041792045300      -13.37991705539300        1.16095212727000      h
       10.19033902968500        4.17447804144100      -11.34378127699600      o
        9.18849091077700        3.30584411620400      -10.09050643332600      h
        9.39247239762300        5.78368463489900      -11.62429049048700      h
       19.67484063109600       -5.51982077102100       -0.81753649561600      o
       18.79890233662000       -6.66523560101600       -1.98350407630900      h
       20.51537097058900       -4.29870838667600       -1.88141786156900      h
       -9.44034002065800       -9.07448489642200       -5.37206109574700      o
      -10.69725025391300       -7.88691634727500       -4.71501569039500      h
       -9.46878654139400      -10.50968561763200       -4.22369014798600      h
      -16.57692759624600        8.91043338540300        0.03458064411200      o
      -15.05391735767300        9.07873826740000        1.04609505518100      h
      -16.06683356934100        9.29155420832000       -1.68115156460000      h
      -12.11978385787000        0.80664570677100      -11.38308616379300      o
      -11.44634679785700       -0.55767862417200      -10.30669585801900      h
      -11.17980375120400        0.62571179268000      -12.93104639946200      h
       -7.51353525055100       -0.97771855918400       13.36482376472500      o
       -7.52407782242900       -0.91848927616400       11.49784529667800      h
       -8.89976471626900       -2.06334300136000       13.80653947469300      h
      -19.27526293457900        1.70595443670400        2.73588152389600      o
      -20.46671104442400        2.53691003199900        3.80971325147300      h
      -20.00846150966500        0.06476632442600        2.25960089895000      h
        3.74349643369000       11.01454575920400       -7.23760379367000      o
        2.19487911139600       12.00618837910800       -7.30522088704300      h
        4.80233594504800       12.01095756495700       -6.07023484890500      h
       14.74351831785100        7.04750038975600        5.03532237553100      o
       16.41392153888100        7.73865861110500        4.92869961796900      h
       14.54140757068800        6.33796097870900        6.76774303831600      h
        5.35214360571700        7.86104749210100       -3.32476100106800      o
        4.26867929944700        8.59207665499500       -4.59923966422900      h
        4.37478971602100        6.61452626346800       -2.35771944981200      h
        1.09962203855800        4.22589040334000       10.65500685214600      o
       -0.63874648090500        3.67454369486700       10.82833706799900      h
        1.39300963707300        3.97464237106500        8.82333727908100      h
       21.71099129675400        0.21460715677800        1.48549637412600      o
       21.36880004915600       -0.40120227898700       -0.19217078167700      h
       21.22843298538600       -1.10455413976000        2.64920006558900      h
      -11.21581548666700       -1.03252136099000       -3.92514824200900      o
      -11.31294323285900       -1.83890480611400       -5.58119982139800      h
       -9.90566706891400       -1.98929837158900       -3.03685597884500      h
      -15.37906862872400       -6.81863409852500      -10.16719508052900      o
      -15.86479731687600       -5.66583216973500       -8.81644071629200      h
      -16.57750839010000       -6.59428810489700      -11.50176690358900      h
       -5.58491641477600       -5.97078412836600       -6.53117301847000      o
       -5.51430284778300       -5.83138885049600       -8.34825486378600      h
       -6.74325893652300       -7.35724813099500       -6.18021758399100      h
       -0.12504628619200       -3.00959382438300      -13.45113895389200      o
       -0.35120823030100       -1.67666696524300      -12.16101538546800      h
        0.75543301048100       -2.16447268558000      -14.79408617350600      h
        5.56447556023100       -7.51311196800100       -7.92424024248500      o
        5.03190673121500       -5.93884215073800       -7.07541131302600      h
        4.95047969994000       -7.31265556951600       -9.66948601022700      h
       -5.45304181249200       10.85115352027800        8.95324633356300      o
       -5.30946076518900       11.27996233417100        7.18984695657600      h
       -3.75026886019300       10.71316754597500        9.60393561053600      h
      -13.64286166113800        4.72084521130000        2.54985627311300      o
      -12.40735121233300        4.90408710873200        1.20468412815000      h
      -14.09404292826200        2.92997194720700        2.61815242835600      h
       13.21615448630600       -9.74905522149600        5.62243046554900      o
       12.45213099104100      -11.18767987158000        4.74647515843700      h
       11.86825346746800       -8.84354451682200        6.49143628583000      h
       11.00862268590300      -12.92138376637700        2.38573449546900      o
       11.38257272619800      -12.64152336610200        0.63616293413700      h
        9.18710620275000      -12.69518593127000        2.60290683957200      h
       -5.63336543373000      -10.28342211398100      -10.44859937915700      o
       -7.18996048715300       -9.36601496141400      -10.72067925575600      h
       -5.76481391169400      -11.14604975429200       -8.83225604308800      h
       12.30274823827500       10.55077382520200       -0.02358137781700      o
       11.94338106459800       11.22234161158000       -1.68356839974600      h
       13.97532094633100        9.77929987373200       -0.15559286032100      h
       -1.45570321578100        4.85384447340000      -13.25831406852200      o
       -3.28200938509700        4.75410859529400      -13.15950443278700      h
       -1.01029560567300        6.33250998200500      -12.26592892105800      h
        4.28165154621300        4.58115320582700      -10.14241392307700      o
        5.35277825978400        6.07602763580600      -10.27341101505400      h
        3.15992235342800        4.86134931572800       -8.70122842013300      h
      -17.87917423038900        4.23087315070900       -1.41411314556500      o
      -18.33875741145800        3.20979686731100        0.05268007529300      h
      -17.54499298212500        5.92619906513000       -0.73973097275600      h
       19.78028611320100       -4.07480204440400        4.25200880136100      o
       19.18736687287000       -5.36386761063800        5.40645734058900      h
       20.00068820814400       -4.92194925496200        2.64742572422700      h
       14.93985402245000        4.03984497500900       -9.39076393192000      o
       15.36758803486800        2.29256686937000       -9.72048595965700      h
       13.30507905725200        4.27942911832600      -10.21657059111000      h
       -1.06445673648200        8.33617795915900       -9.36427834880900      o
        0.55240353638800        8.77297311944200       -8.66338702347100      h
       -1.63145088358500        6.76092214941400       -8.53074259351200      h
        5.06572915434800       -6.21661115823500        8.44927027419900      o
        4.48880223065500       -5.56545421434000        6.83181942606500      h
        4.21918336721400       -5.22217689021600        9.75331722908900      h
        2.77427462283600       11.08847776773300        6.53616215859300      o
        4.21305694900800       12.21178656902200        6.44778509076500      h
        3.40544353058600        9.46660696323200        5.85428275848400      h
       -3.51832625026300        2.38146307798600        9.37857911638200      o
       -3.62588256721400        1.47200197850500        7.79340140825400      h
       -4.94291580329800        3.52653947015800        9.43657697630500      h
       -6.35934049036800        3.96847390948000      -11.79324132616700      o
       -6.85203483970600        2.37957024041400      -12.57597847212900      h
       -7.92206489220600        4.76275714190700      -11.21395500214800      h
       14.06373840761800        4.92974592029900        9.41786364270500      o
       12.68023236467100        6.04541589145400        9.95253563333400      h
       13.29280377505300        3.30127894195600        9.00407107213900      h
       11.02147045245300       11.48050367942900       -4.98531039240000      o
       10.57160416284700        9.73679280984200       -5.33818548268700      h
       11.83169267364200       12.14381955547400       -6.45960809653800      h
      -10.28100205571900       -7.56803315622400      -10.11265966568600      o
      -12.07546956609600       -7.54838829242200      -10.49511602142500      h
      -10.15301818865000       -8.39253630739900       -8.46669240303300      h
       -5.28965845074300      -12.59286778838500       -5.70171586965000      o
       -6.37816946820400      -13.93092192491400       -5.15440916546600      h
       -3.54060178285100      -13.20480122917600       -5.48804107493200      h
        4.28509484855800       11.39722282548600        0.80676912439500      o
        5.00223860148500       12.36935359202700        2.18719252354100      h
        5.45284324046700        9.96255041911700        0.59992087396200      h
      -11.98897229824300       10.11839783894000        2.28647814836200      o
      -10.96341078394000        9.82033326451000        0.77015045261000      h
      -11.93634708282800       11.89484570992300        2.61864533540200      h
       -4.65658608232700       10.95607154037600        3.20186151517500      o
       -5.75791646867100        9.49282686410200        3.38415101794100      h
       -4.91262971504100       11.56312425726700        1.49595356913100      h
        6.28046484083600       13.46135650783600       -3.67447727931500      o
        5.66270875112800       12.70048559380700       -2.12170287192600      h
        8.02002570594200       12.93787860517700       -3.87217705594500      h
       -7.26614065294500        6.13561797988100        9.01215511679400      o
       -8.94155747773400        6.36474535432600        8.27460379854600      h
       -6.72056256310000        7.87599755892800        9.35918360210700      h
        8.24996399221700        3.36809023180600       -1.17847774826900      o
        9.58499825616100        4.20733657187000       -2.08563648917900      h
        9.08478178314000        2.21769637361200       -0.01943640057400      h
       18.96326182497000        4.18564765840500        7.69887970960800      o
       17.59368971108100        4.75173210201800        8.76640879466400      h
       18.98543029418900        2.37115735150800        7.92582306163300      h
       -5.40412541083100        6.33130291483000       -3.21826902463600      o
       -6.85645133409500        7.34608152871100       -2.69962194482800      h
       -4.76686671948100        5.50216093677200       -1.69920596682500      h
       -9.96853405492100        9.83070864666400       -6.86624273726400      o
       -8.23576371006600       10.34505006602100       -7.19725828109100      h
      -10.25896518777100        8.36778926101200       -7.93332270532600      h
       16.78833467806200        8.10994476387700       -0.67651317745600      o
       16.32385470078600        7.06588720441200       -2.11012534401000      h
       17.89601637625200        7.10945119297100        0.37701758896400      h
       11.70712636688100        0.59528990210200        7.96565268583200      o
       12.39710173846100       -0.83750967057800        7.03443728213100      h
       10.97984095839600       -0.06238183609800        9.51618833753400      h
      -17.18042276249700        1.51605614156600        7.52731848605900      o
      -17.38141591666300        3.29163137962500        7.11492207507200      h
      -15.68871921726200        1.41547705678100        8.60998697978800      h
        0.85345377709500      -11.49951585429000        6.55405183624100      o
        1.30119475863300      -10.55686969428700        5.03793326871200      h
        2.42709091184300      -12.03982981619400        7.30199847268600      h
      -13.18469669690600       -6.19727669552500       -3.62416516329500      o
      -13.99156373178200       -7.66198287299800       -2.82190716377300      h
      -14.44281383311900       -5.34808841029900       -4.67246211449100      h
       -0.55184967339700       -7.88894523642200        9.76477344510200      o
        0.91176116808200       -7.26912716789800       10.63990092355800      h
       -0.00914716800200       -9.19026517843900        8.54887486302800      h
       19.44958476069100        4.67758737610900        2.60002886197300      o
       20.76313722456600        3.44695633633200        2.23475794462500      h
       19.31410511347400        4.64335897030000        4.44299870935500      h
        6.88086974296700      -10.83579980043000       -3.92790633407000      o
        8.71334088732400      -10.72420375509000       -3.65672126859700      h
        6.60566457296400      -10.36751340543200       -5.66855351853200      h
       -2.95281261670200        6.73484635621000        5.94988718317200      o
       -4.57447069588700        6.32270817967500        6.68384736279100      h
       -2.10714341957900        7.77890217353600        7.21941534524700      h
        6.30983690153300        4.65581707271400        9.25533125214000      o
        6.39210475049500        2.82098068140700        8.96372651557200      h
        5.06220237487200        4.90736331319300       10.54525466476000      h
       -3.55379319603812        0.07719984008963        4.41377828365592      o
       -3.57889995322771        1.57087094090020        3.37124373809861      h
       -2.48619878821919       -1.05269465243239        3.41732257801702      h
       -0.50002551173505       -1.58930783409736        0.64614600630367      o
       -0.50714118988935       -2.89578185592556       -0.62940542308428      h
        0.92500742852756       -0.53894005873551        0.25505415753808      h
$end
 
 Bond Distances (Angstroems)
 ---------------------------
O1-H2=0.9768         O1-H3=0.9747         H2-O1=0.9768         H3-O1=0.9747         O4-H5=0.9756         O4-H6=0.9728         
H5-O4=0.9756         H6-O4=0.9728         O7-H8=0.9806         O7-H9=0.9607         H8-O7=0.9806         H9-O7=0.9607         
O10-H11=0.9638       O10-H12=0.9674       H11-O10=0.9638       H12-O10=0.9674       O13-H14=0.9701       O13-H15=0.9725       
H14-O13=0.9701       H15-O13=0.9725       O16-H17=0.9799       O16-H18=0.9720       H17-O16=0.9799       H18-O16=0.9720       
O19-H20=0.9661       O19-H21=0.9812       H20-O19=0.9661       H21-O19=0.9812       O22-H23=0.9705       O22-H24=0.9723       
H23-O22=0.9705       H24-O22=0.9723       O25-H26=0.9689       O25-H27=0.9679       H26-O25=0.9689       H27-O25=0.9679       
O28-H29=0.9815       O28-H30=0.9757       H29-O28=0.9815       H30-O28=0.9757       O31-H32=0.9620       O31-H33=0.9718       
H32-O31=0.9620       H33-O31=0.9718       O34-H35=0.9781       O34-H36=0.9774       H35-O34=0.9781       H36-O34=0.9774       
O37-H38=0.9754       O37-H39=0.9756       H38-O37=0.9754       H39-O37=0.9756       O40-H41=0.9758       O40-H42=0.9728       
H41-O40=0.9758       H42-O40=0.9728       O43-H44=0.9678       O43-H45=0.9803       H44-O43=0.9678       H45-O43=0.9803       
O46-H47=0.9790       O46-H48=0.9616       H47-O46=0.9790       H48-O46=0.9616       O49-H50=0.9861       O49-H51=0.9611       
H50-O49=0.9861       H51-O49=0.9611       O52-H53=0.9711       O52-H54=0.9749       H53-O52=0.9711       H54-O52=0.9749       
O55-H56=0.9793       O55-H57=0.9684       H56-O55=0.9793       H57-O55=0.9684       O58-H59=0.9736       O58-H60=0.9867       
H59-O58=0.9736       H60-O58=0.9867       O61-H62=0.9607       O61-H63=0.9823       H62-O61=0.9607       H63-O61=0.9823       
O64-H65=0.9723       O64-H66=0.9713       H65-O64=0.9723       H66-O64=0.9713       O67-H68=0.9679       O67-H69=0.9713       
H68-O67=0.9679       H69-O67=0.9713       O70-H71=0.9834       O70-H72=0.9789       H71-O70=0.9834       H72-O70=0.9789       
O73-H74=0.9800       O73-H75=0.9774       H74-O73=0.9800       H75-O73=0.9774       O76-H77=0.9762       O76-H78=0.9760       
H77-O76=0.9762       H78-O76=0.9760       O79-H80=0.9745       O79-H81=0.9759       H80-O79=0.9745       H81-O79=0.9759       
O82-H83=0.9678       O82-H84=0.9722       H83-O82=0.9678       H84-O82=0.9722       O85-H86=0.9850       O85-H87=0.9713       
H86-O85=0.9850       H87-O85=0.9713       O88-H89=0.9629       O88-H90=0.9728       H89-O88=0.9629       H90-O88=0.9728       
O91-H92=0.9775       O91-H93=0.9770       H92-O91=0.9775       H93-O91=0.9770       O94-H95=0.9607       O94-H96=0.9759       
H95-O94=0.9607       H96-O94=0.9759       O97-H98=0.9721       O97-H99=0.9592       H98-O97=0.9721       H99-O97=0.9592       
O100-H101=0.9612     O100-H102=0.9771     H101-O100=0.9612     H102-O100=0.9771     O103-H104=0.9807     O103-H105=0.9885     
H104-O103=0.9807     H105-O103=0.9885     O106-H107=0.9772     O106-H108=0.9705     H107-O106=0.9772     H108-O106=0.9705     
O109-H110=0.9698     O109-H111=0.9739     H110-O109=0.9698     H111-O109=0.9739     O112-H113=0.9647     O112-H114=0.9787     
H113-O112=0.9647     H114-O112=0.9787     O115-H116=0.9887     O115-H117=0.9713     H116-O115=0.9887     H117-O115=0.9713     
O118-H119=0.9734     O118-H120=0.9663     H119-O118=0.9734     H120-O118=0.9663     O121-H122=0.9763     O121-H123=0.9632     
H122-O121=0.9763     H123-O121=0.9632     O124-H125=0.9666     O124-H126=0.9733     H125-O124=0.9666     H126-O124=0.9733     
O127-H128=0.9571     O127-H129=0.9782     H128-O127=0.9571     H129-O127=0.9782     O130-H131=0.9790     O130-H132=0.9793     
H131-O130=0.9790     H132-O130=0.9793     O133-H134=0.9804     O133-H135=0.9739     H134-O133=0.9804     H135-O133=0.9739     
O136-H137=0.9641     O136-H138=0.9732     H137-O136=0.9641     H138-O136=0.9732     O139-H140=0.9868     O139-H141=0.9738     
H140-O139=0.9868     H141-O139=0.9738     O142-H143=0.9777     O142-H144=0.9632     H143-O142=0.9777     H144-O142=0.9632     
O145-H146=0.9693     O145-H147=0.9864     H146-O145=0.9693     H147-O145=0.9864     O148-H149=0.9874     O148-H150=0.9562     
H149-O148=0.9874     H150-O148=0.9562     O151-H152=0.9760     O151-H153=0.9768     H152-O151=0.9760     H153-O151=0.9768     
O154-H155=0.9566     O154-H156=0.9789     H155-O154=0.9566     H156-O154=0.9789     O157-H158=0.9793     O157-H159=0.9867     
H158-O157=0.9793     H159-O157=0.9867     O160-H161=0.9769     O160-H162=0.9868     H161-O160=0.9769     H162-O160=0.9868     
O163-H164=0.9606     O163-H165=0.9773     H164-O163=0.9606     H165-O163=0.9773     O166-H167=0.9634     O166-H168=0.9806     
H167-O166=0.9634     H168-O166=0.9806     O169-H170=0.9571     O169-H171=0.9782     H170-O169=0.9571     H171-O169=0.9782     
O172-H173=0.9617     O172-H174=0.9714     H173-O172=0.9617     H174-O172=0.9714     O175-H176=0.9708     O175-H177=0.9708     
H176-O175=0.9708     H177-O175=0.9708     O178-H179=0.9717     O178-H180=0.9728     H179-O178=0.9717     H180-O178=0.9728     
[...]
   160   8 o      161   1 h                                       0.9768940
   160   8 o      162   1 h                                       0.9868370
   163   8 o      164   1 h                                       0.9605857
   163   8 o      165   1 h                                       0.9772980
   166   8 o      167   1 h                                       0.9634086
   166   8 o      168   1 h                                       0.9806453
   169   8 o      170   1 h                                       0.9570983
   169   8 o      171   1 h                                       0.9781542
   172   8 o      173   1 h                                       0.9616547
   172   8 o      174   1 h                                       0.9714035
   175   8 o      176   1 h                                       0.9708146
   175   8 o      177   1 h                                       0.9707548
   178   8 o      179   1 h                                       0.9716949
   178   8 o      180   1 h                                       0.9728243
   181   8 o      182   1 h                                       0.9708393
   181   8 o      183   1 h                                       0.9830271
   184   8 o      185   1 h                                       0.9701026
   184   8 o      186   1 h                                       0.9624335
   187   8 o      188   1 h                                       0.9826867
   187   8 o      189   1 h                                       0.9695982
   190   8 o      191   1 h                                       0.9710515
   190   8 o      192   1 h                                       0.9832252
   193   8 o      194   1 h                                       0.9624741
   193   8 o      195   1 h                                       0.9887853
   196   8 o      197   1 h                                       0.9565168
   196   8 o      198   1 h                                       0.9790393
   199   8 o      200   1 h                                       0.9796404
   199   8 o      201   1 h                                       0.9811167
   202   8 o      203   1 h                                       0.9746123
   202   8 o      204   1 h                                       0.9753201
   205   8 o      206   1 h                                       0.9705375
   205   8 o      207   1 h                                       0.9757989
   208   8 o      209   1 h                                       0.9686797
   208   8 o      210   1 h                                       0.9712737
   211   8 o      212   1 h                                       0.9790255
   211   8 o      213   1 h                                       0.9788000
   214   8 o      215   1 h                                       0.9806751
   214   8 o      216   1 h                                       0.9611724
   217   8 o      218   1 h                                       0.9700677
   217   8 o      219   1 h                                       0.9841962
   220   8 o      221   1 h                                       0.9621609
   220   8 o      222   1 h                                       0.9965658 (max)
   223   8 o      224   1 h                                       0.9823028
   223   8 o      225   1 h                                       0.9661245
   226   8 o      227   1 h                                       0.9854317
   226   8 o      228   1 h                                       0.9722727
   229   8 o      230   1 h                                       0.9746264
   229   8 o      231   1 h                                       0.9631487
   232   8 o      233   1 h                                       0.9858536
   232   8 o      234   1 h                                       0.9673876
   235   8 o      236   1 h                                       0.9746682
   235   8 o      237   1 h                                       0.9755019
   238   8 o      239   1 h                                       0.9839729
   238   8 o      240   1 h                                       0.9825319
   241   8 o      242   1 h                                       0.9761337
   241   8 o      243   1 h                                       0.9705870
   244   8 o      245   1 h                                       0.9736475
   244   8 o      246   1 h                                       0.9744971
   247   8 o      248   1 h                                       0.9701093
   247   8 o      249   1 h                                       0.9709497
   250   8 o      251   1 h                                       0.9684309
   250   8 o      252   1 h                                       0.9778428
   253   8 o      254   1 h                                       0.9610242
   253   8 o      255   1 h                                       0.9815470
   256   8 o      257   1 h                                       0.9663257
   256   8 o      258   1 h                                       0.9783577
   259   8 o      260   1 h                                       0.9732755
   259   8 o      261   1 h                                       0.9645583
   262   8 o      263   1 h                                       0.9564674
   262   8 o      264   1 h                                       0.9929140
   265   8 o      266   1 h                                       0.9710220
   265   8 o      267   1 h                                       0.9739745
   268   8 o      269   1 h                                       0.9638443
   268   8 o      270   1 h                                       0.9660818
   271   8 o      272   1 h                                       0.9668608
   271   8 o      273   1 h                                       0.9684438
   274   8 o      275   1 h                                       0.9717415
   274   8 o      276   1 h                                       0.9706952
   277   8 o      278   1 h                                       0.9765762
   277   8 o      279   1 h                                       0.9678109
   280   8 o      281   1 h                                       0.9755214
   280   8 o      282   1 h                                       0.9703947
   283   8 o      284   1 h                                       0.9823782
   283   8 o      285   1 h                                       0.9626495
   286   8 o      287   1 h                                       0.9766825
   286   8 o      288   1 h                                       0.9669653
   289   8 o      290   1 h                                       0.9898707
   289   8 o      291   1 h                                       0.9577367
   292   8 o      293   1 h                                       0.9639623
   292   8 o      294   1 h                                       0.9808106
   295   8 o      296   1 h                                       0.9833802
   295   8 o      297   1 h                                       0.9730520
   298   8 o      299   1 h                                       0.9700416
   298   8 o      300   1 h                                       0.9805691
   301   8 o      302   1 h                                       0.9654844
   301   8 o      303   1 h                                       0.9704335
   304   8 o      305   1 h                                       0.9562317
   304   8 o      306   1 h                                       0.9807451
   307   8 o      308   1 h                                       0.9710041
   307   8 o      309   1 h                                       0.9673530
   310   8 o      311   1 h                                       0.9718439
   310   8 o      312   1 h                                       0.9729817
   313   8 o      314   1 h                                       0.9910407
   313   8 o      315   1 h                                       0.9574524
   316   8 o      317   1 h                                       0.9652812
   316   8 o      318   1 h                                       0.9694651
   319   8 o      320   1 h                                       0.9614178
   319   8 o      321   1 h                                       0.9741166
   322   8 o      323   1 h                                       0.9861205
   322   8 o      324   1 h                                       0.9736034
   325   8 o      326   1 h                                       0.9896272
   325   8 o      327   1 h                                       0.9655193
   328   8 o      329   1 h                                       0.9807846
   328   8 o      330   1 h                                       0.9574270
   331   8 o      332   1 h                                       0.9733726
   331   8 o      333   1 h                                       0.9617527
   334   8 o      335   1 h                                       0.9705028
   334   8 o      336   1 h                                       0.9707246
   337   8 o      338   1 h                                       0.9888113
   337   8 o      339   1 h                                       0.9563933
   340   8 o      341   1 h                                       0.9666096
   340   8 o      342   1 h                                       0.9877463
   343   8 o      344   1 h                                       0.9759265
   343   8 o      345   1 h                                       0.9842909
   346   8 o      347   1 h                                       0.9728872
   346   8 o      348   1 h                                       0.9768437
   349   8 o      350   1 h                                       0.9794835
   352   8 o      353   1 h                                       0.9762836
   352   8 o      354   1 h                                       0.9718699
   355   8 o      356   1 h                                       0.9614292
   355   8 o      357   1 h                                       0.9709581
   358   8 o      359   1 h                                       0.9655016
   358   8 o      360   1 h                                       0.9620004
   361   8 o      362   1 h                                       0.9812955
   361   8 o      363   1 h                                       0.9655782
   364   8 o      365   1 h                                       0.9788851
   364   8 o      366   1 h                                       0.9727893
   367   8 o      368   1 h                                       0.9715914
   367   8 o      369   1 h                                       0.9684357
   370   8 o      371   1 h                                       0.9862471
   370   8 o      372   1 h                                       0.9631143
   373   8 o      374   1 h                                       0.9884753
   373   8 o      375   1 h                                       0.9606171
   376   8 o      377   1 h                                       0.9559160 (min)
   376   8 o      378   1 h                                       0.9840309
   379   8 o      380   1 h                                       0.9737642
   379   8 o      381   1 h                                       0.9867032
   382   8 o      383   1 h                                       0.9582807
   382   8 o      384   1 h                                       0.9964249
   385   8 o      386   1 h                                       0.9660340
   385   8 o      387   1 h                                       0.9820773
   388   8 o      389   1 h                                       0.9694134
   388   8 o      390   1 h                                       0.9905960
   391   8 o      392   1 h                                       0.9628821
   391   8 o      393   1 h                                       0.9652598
   394   8 o      395   1 h                                       0.9760696
   394   8 o      396   1 h                                       0.9787597
   397   8 o      398   1 h                                       0.9742356
   397   8 o      399   1 h                                       0.9565779
   400   8 o      401   1 h                                       0.9651073
   400   8 o      402   1 h                                       0.9739176
   403   8 o      404   1 h                                       0.9889050
   403   8 o      405   1 h                                       0.9602753
   406   8 o      407   1 h                                       0.9875170
   406   8 o      408   1 h                                       0.9847613
   409   8 o      410   1 h                                       0.9633453
   409   8 o      411   1 h                                       0.9673778
   412   8 o      413   1 h                                       0.9713757
   412   8 o      414   1 h                                       0.9779700
   415   8 o      416   1 h                                       0.9787162
   415   8 o      417   1 h                                       0.9746000
   418   8 o      419   1 h                                       0.9582582
   418   8 o      420   1 h                                       0.9780839
   421   8 o      422   1 h                                       0.9669115
   421   8 o      423   1 h                                       0.9720125
   424   8 o      425   1 h                                       0.9664847
   424   8 o      426   1 h                                       0.9772027
   427   8 o      428   1 h                                       0.9692911
   427   8 o      429   1 h                                       0.9713925
   430   8 o      431   1 h                                       0.9756287
   430   8 o      432   1 h                                       0.9777331
   433   8 o      434   1 h                                       0.9765143
   433   8 o      435   1 h                                       0.9815630
   436   8 o      437   1 h                                       0.9679742
   436   8 o      438   1 h                                       0.9672403
   439   8 o      440   1 h                                       0.9677803
   439   8 o      441   1 h                                       0.9774531
   442   8 o      443   1 h                                       0.9607556
   442   8 o      444   1 h                                       0.9896740
   445   8 o      446   1 h                                       0.9718722
   445   8 o      447   1 h                                       0.9766264
   448   8 o      449   1 h                                       0.9670673
   448   8 o      450   1 h                                       0.9891226
   451   8 o      452   1 h                                       0.9687668
   451   8 o      453   1 h                                       0.9676884
   454   8 o      455   1 h                                       0.9728863
   454   8 o      456   1 h                                       0.9769831
   457   8 o      458   1 h                                       0.9821454
   457   8 o      459   1 h                                       0.9782582
   460   8 o      461   1 h                                       0.9710696
   460   8 o      462   1 h                                       0.9569190
   463   8 o      464   1 h                                       0.9709750
   463   8 o      465   1 h                                       0.9765283
   466   8 o      467   1 h                                       0.9576193
   466   8 o      468   1 h                                       0.9870707
   469   8 o      470   1 h                                       0.9707053
   469   8 o      471   1 h                                       0.9849960
   472   8 o      473   1 h                                       0.9814589
   472   8 o      474   1 h                                       0.9567536
   475   8 o      476   1 h                                       0.9739224
   475   8 o      477   1 h                                       0.9677136
   478   8 o      479   1 h                                       0.9716789
   478   8 o      480   1 h                                       0.9669889
   481   8 o      482   1 h                                       0.9762572
   481   8 o      483   1 h                                       0.9824764
   484   8 o      485   1 h                                       0.9626937
   484   8 o      486   1 h                                       0.9705324
   487   8 o      488   1 h                                       0.9664981
   487   8 o      489   1 h                                       0.9677392
   490   8 o      491   1 h                                       0.9769049
   490   8 o      492   1 h                                       0.9759164
   493   8 o      494   1 h                                       0.9723928
   493   8 o      495   1 h                                       0.9704515
   496   8 o      497   1 h                                       0.9701483
   496   8 o      498   1 h                                       0.9667988
   499   8 o      500   1 h                                       0.9752010
   499   8 o      501   1 h                                       0.9708113
   502   8 o      503   1 h                                       0.9704506
   502   8 o      504   1 h                                       0.9768255
   505   8 o      506   1 h                                       0.9739837
   505   8 o      507   1 h                                       0.9653239
   508   8 o      509   1 h                                       0.9814800
   508   8 o      510   1 h                                       0.9761716
   511   8 o      512   1 h                                       0.9601585
   511   8 o      513   1 h                                       0.9852321
   514   8 o      515   1 h                                       0.9719152
   514   8 o      516   1 h                                       0.9780570
   517   8 o      518   1 h                                       0.9820403
   517   8 o      519   1 h                                       0.9649156
   520   8 o      521   1 h                                       0.9668650
   520   8 o      522   1 h                                       0.9781782
   523   8 o      524   1 h                                       0.9841027
   523   8 o      525   1 h                                       0.9589314
   526   8 o      527   1 h                                       0.9639980
   526   8 o      528   1 h                                       0.9770944
   529   8 o      530   1 h                                       0.9662314
   529   8 o      531   1 h                                       0.9593947

 * 1 distinct bonds (by element types)

   Z      Z             #   av. dist./Å        max./Å        min./Å
   1 H    8 O         353     0.9730541     0.9965658     0.9559160


optimized geometry written to: xtbopt.coord


           -------------------------------------------------
          | TOTAL ENERGY             -901.189093618321 Eh   |
          | GRADIENT NORM               0.005395996085 Eh/α |
          | HOMO-LUMO GAP               6.658018839721 eV   |
           -------------------------------------------------

------------------------------------------------------------------------
 * finished run on 2022/11/17 at 06:51:11.451     
------------------------------------------------------------------------
 total:
 * wall-time:     0 d,  0 h,  2 min, 23.465 sec
 *  cpu-time:     0 d,  0 h,  3 min, 42.027 sec
 * ratio c/w:     1.548 speedup
 SCF:
 * wall-time:     0 d,  0 h,  0 min,  7.567 sec
 *  cpu-time:     0 d,  0 h,  0 min, 12.414 sec
 * ratio c/w:     1.641 speedup
 ANC optimizer:
 * wall-time:     0 d,  0 h,  2 min, 15.280 sec
 *  cpu-time:     0 d,  0 h,  3 min, 28.559 sec
 * ratio c/w:     1.542 speedup

