      -----------------------------------------------------------      
     |                   =====================                   |     
     |                           x T B                           |     
     |                   =====================                   |     
     |                         S. Grimme                         |     
     |          Mulliken Center for Theoretical Chemistry        |     
     |                    University of Bonn                     |     
      -----------------------------------------------------------      

   * xtb version 6.5.1 (579679a) compiled by 'ehlert@majestix' on 2022-07-11

   xtb is free software: you can redistribute it and/or modify it under
   the terms of the GNU Lesser General Public License as published by
   the Free Software Foundation, either version 3 of the License, or
   (at your option) any later version.
   
   xtb is distributed in the hope that it will be useful,
   but WITHOUT ANY WARRANTY; without even the implied warranty of
   MERCHANTABILITY or FITNESS FOR A PARTICULAR PURPOSE.  See the
   GNU Lesser General Public License for more details.
   
   Cite this work as:
   * C. Bannwarth, E. Caldeweyher, S. Ehlert, A. Hansen, P. Pracht,
     J. Seibert, S. Spicher, S. Grimme, WIREs Comput. Mol. Sci., 2020, 11,
     e01493. DOI: 10.1002/wcms.1493
   
   for GFN2-xTB:
   * C. Bannwarth, S. Ehlert and S. Grimme., J. Chem. Theory Comput., 2019,
     15, 1652-1671. DOI: 10.1021/acs.jctc.8b01176
   for GFN1-xTB:
   * S. Grimme, C. Bannwarth, P. Shushkov, J. Chem. Theory Comput., 2017,
     13, 1989-2009. DOI: 10.1021/acs.jctc.7b00118
   for GFN0-xTB:
   * P. Pracht, E. Caldeweyher, S. Ehlert, S. Grimme, ChemRxiv, 2019, preprint.
     DOI: 10.26434/chemrxiv.8326202.v1
   for GFN-FF:
   * S. Spicher and S. Grimme, Angew. Chem. Int. Ed., 2020, 59, 15665-15673.
     DOI: 10.1002/anie.202004239
   
   for ALPB and GBSA implicit solvation:
   * S. Ehlert, M. Stahn, S. Spicher, S. Grimme, J. Chem. Theory Comput.,
     2021, 17, 4250-4261. DOI: 10.1021/acs.jctc.1c00471
   
   for DFT-D4:
   * E. Caldeweyher, C. Bannwarth and S. Grimme, J. Chem. Phys., 2017,
     147, 034112. DOI: 10.1063/1.4993215
   * E. Caldeweyher, S. Ehlert, A. Hansen, H. Neugebauer, S. Spicher,
     C. Bannwarth and S. Grimme, J. Chem. Phys., 2019, 150, 154122.
     DOI: 10.1063/1.5090222
   * E. Caldeweyher, J.-M. Mewes, S. Ehlert and S. Grimme, Phys. Chem. Chem. Phys.
     2020, 22, 8499-8512. DOI: 10.1039/D0CP00502A
   
   for sTDA-xTB:
   * S. Grimme and C. Bannwarth, J. Chem. Phys., 2016, 145, 054103.
     DOI: 10.1063/1.4959605
   
   in the mass-spec context:
   * V. Asgeirsson, C. Bauer and S. Grimme, Chem. Sci., 2017, 8, 4879.
     DOI: 10.1039/c7sc00601b
   * J. Koopman and S. Grimme, ACS Omega 2019, 4, 12, 15120-15133.
     DOI: 10.1021/acsomega.9b02011
   
   for metadynamics refer to:
   * S. Grimme, J. Chem. Theory Comput., 2019, 155, 2847-2862
     DOI: 10.1021/acs.jctc.9b00143
   
   for SPH calculations refer to:
   * S. Spicher and S. Grimme, J. Chem. Theory Comput., 2021, 17, 1701-1714
     DOI: 10.1021/acs.jctc.0c01306
   
   with help from (in alphabetical order)
   P. Atkinson, C. Bannwarth, F. Bohle, G. Brandenburg, E. Caldeweyher
   M. Checinski, S. Dohm, S. Ehlert, S. Ehrlich, I. Gerasimov, C. Hölzer
   A. Katbashev, J. Koopman, C. Lavigne, S. Lehtola, F. März, M. Müller,
   F. Musil, H. Neugebauer, J. Pisarek, C. Plett, P. Pracht, F. Pultar,
   J. Seibert, P. Shushkov, S. Spicher, M. Stahn, M. Steiner, T. Strunk,
   J. Stückrath, T. Rose, and J. Unsleber
   
 * started run on 2022/11/17 at 06:54:59.739     

           -------------------------------------------------
          |                Calculation Setup                |
           -------------------------------------------------

          program call               : xtb solvent_cluster.coord --gfn2 --sp --lmo --chrg 0
          hostname                   : cn0363
          coordinate file            : solvent_cluster.coord
          omp threads                :                     2

   ID    Z sym.   atoms
    1    8 o      1, 4, 7, 10, 13, 16, 19, 22, 25, 28, 31, 34, 37, 40, 43,
                  46, 49, 52, 55, 58, 61, 64, 67, 70, 73, 76, 79, 82, 85, 88,
                  91, 94, 97, 100, 103, 106, 109, 112, 115, 118, 121, 124,
                  127, 130, 133, 136, 139, 142, 145, 148, 151, 154, 157, 160,
                  163, 166, 169, 172, 175, 178, 181, 184, 187, 190, 193, 196,
                  199, 202, 205, 208, 211, 214, 217, 220, 223, 226, 229, 232,
                  235, 238, 241, 244, 247, 250, 253, 256, 259, 262, 265, 268,
                  271, 274, 277, 280, 283, 286, 289, 292, 295, 298, 301, 304,
                  307, 310, 313, 316, 319, 322, 325, 328, 331, 334, 337, 340,
                  343, 346, 349, 352, 355, 358, 361, 364, 367, 370, 373, 376,
                  379, 382, 385, 388, 391, 394, 397, 400, 403, 406, 409, 412,
                  415, 418, 421, 424, 427, 430, 433, 436, 439, 442, 445, 448,
                  451, 454, 457, 460, 463, 466, 469, 472, 475, 478, 481, 484,
                  487, 490, 493, 496, 499, 502, 505, 508, 511, 514, 517, 520,
                  523, 526, 529
    2    1 h      2, 3, 5, 6, 8, 9, 11, 12, 14, 15, 17, 18, 20, 21, 23, 24,
                  26, 27, 29, 30, 32, 33, 35, 36, 38, 39, 41, 42, 44, 45, 47,
                  48, 50, 51, 53, 54, 56, 57, 59, 60, 62, 63, 65, 66, 68, 69,
                  71, 72, 74, 75, 77, 78, 80, 81, 83, 84, 86, 87, 89, 90, 92,
                  93, 95, 96, 98, 99, 101, 102, 104, 105, 107, 108, 110, 111,
                  113, 114, 116, 117, 119, 120, 122, 123, 125, 126, 128, 129,
                  131, 132, 134, 135, 137, 138, 140, 141, 143, 144, 146, 147,
                  149, 150, 152, 153, 155, 156, 158, 159, 161, 162, 164, 165,
                  167, 168, 170, 171, 173, 174, 176, 177, 179, 180, 182, 183,
                  185, 186, 188, 189, 191, 192, 194, 195, 197, 198, 200, 201,
                  203, 204, 206, 207, 209, 210, 212, 213, 215, 216, 218, 219,
                  221, 222, 224, 225, 227, 228, 230, 231, 233, 234, 236, 237,
                  239, 240, 242, 243, 245, 246, 248, 249, 251, 252, 254, 255,
                  257, 258, 260, 261, 263, 264, 266, 267, 269, 270, 272, 273,
                  275, 276, 278, 279, 281, 282, 284, 285, 287, 288, 290, 291,
                  293, 294, 296, 297, 299, 300, 302, 303, 305, 306, 308, 309,
                  311, 312, 314, 315, 317, 318, 320, 321, 323, 324, 326, 327,
                  329, 330, 332, 333, 335, 336, 338, 339, 341, 342, 344, 345,
                  347, 348, 350, 351, 353, 354, 356, 357, 359, 360, 362, 363,
                  365, 366, 368, 369, 371, 372, 374, 375, 377, 378, 380, 381,
                  383, 384, 386, 387, 389, 390, 392, 393, 395, 396, 398, 399,
                  401, 402, 404, 405, 407, 408, 410, 411, 413, 414, 416, 417,
                  419, 420, 422, 423, 425, 426, 428, 429, 431, 432, 434, 435,
                  437, 438, 440, 441, 443, 444, 446, 447, 449, 450, 452, 453,
                  455, 456, 458, 459, 461, 462, 464, 465, 467, 468, 470, 471,
                  473, 474, 476, 477, 479, 480, 482, 483, 485, 486, 488, 489,
                  491, 492, 494, 495, 497, 498, 500, 501, 503, 504, 506, 507,
                  509, 510, 512, 513, 515, 516, 518, 519, 521, 522, 524, 525,
                  527, 528, 530, 531

molecular fragmentation (1/2 indicates fragments):
111222222222222222222222222222222222222222222222222222222222222222222222
222222222222222222222222222222222222222222222222222222222222222222222222
222222222222222222222222222222222222222222222222222222222222222222222222
222222222222222222222222222222222222222222222222222222222222222222222222
222222222222222222222222222222222222222222222222222222222222222222222222
222222222222222222222222222222222222222222222222222222222222222222222222
222222222222222222222222222222222222222222222222222222222222222222222222
222222222222222222222222222
# atoms in fragment 1/2:     3   528
 fragment masses (1/2) :       18.02     3170.69
CMA distance (Bohr)    :   6.451
constraining FC (au)   :  0.0500

           -------------------------------------------------
          |                 G F N 2 - x T B                 |
           -------------------------------------------------

        Reference                      10.1021/acs.jctc.8b01176
      * Hamiltonian:
        H0-scaling (s, p, d)           1.850000    2.230000    2.230000
        zeta-weighting                 0.500000
      * Dispersion:
        s8                             2.700000
        a1                             0.520000
        a2                             5.000000
        s9                             5.000000
      * Repulsion:
        kExp                           1.500000    1.000000
        rExp                           1.000000
      * Coulomb:
        alpha                          2.000000
        third order                    shell-resolved
        anisotropic                    true
        a3                             3.000000
        a5                             4.000000
        cn-shift                       1.200000
        cn-exp                         4.000000
        max-rad                        5.000000


          ...................................................
          :                      SETUP                      :
          :.................................................:
          :  # basis functions                1062          :
          :  # atomic orbitals                1062          :
          :  # shells                          708          :
          :  # electrons                      1416          :
          :  max. iterations                   250          :
          :  Hamiltonian                  GFN2-xTB          :
          :  restarted?                      false          :
          :  GBSA solvation                  false          :
          :  PC potential                    false          :
          :  electronic temp.          300.0000000     K    :
          :  accuracy                    1.0000000          :
          :  -> integral cutoff          0.2500000E+02      :
          :  -> integral neglect         0.1000000E-07      :
          :  -> SCF convergence          0.1000000E-05 Eh   :
          :  -> wf. convergence          0.1000000E-03 e    :
          :  Broyden damping             0.4000000          :
          ...................................................

 iter      E             dE          RMSdq      gap      omega  full diag
   1   -906.5879394 -0.906588E+03  0.406E+00    8.66       0.0  T
   2   -906.6453487 -0.574094E-01  0.241E+00    7.70       1.0  T
   3   -906.6681434 -0.227947E-01  0.216E-01    6.31       1.0  T
   4   -906.6721266 -0.398315E-02  0.464E-02    6.69       1.0  T
   5   -906.6722028 -0.762168E-04  0.314E-02    6.63       1.0  T
   6   -906.6722331 -0.303071E-04  0.426E-03    6.66       1.0  T
   7   -906.6722348 -0.171815E-05  0.742E-04    6.66       5.8  T
   8   -906.6722348 -0.191827E-07  0.392E-04    6.66      11.1  T
   9   -906.6722348 -0.106231E-07  0.617E-05    6.66      70.3  T

   *** convergence criteria satisfied after 9 iterations ***

         #    Occupation            Energy/Eh            Energy/eV
      -------------------------------------------------------------
         1        2.0000           -0.6877741             -18.7153
       ...           ...                  ...                  ...
       702        2.0000           -0.3612869              -9.8311
       703        2.0000           -0.3602444              -9.8027
       704        2.0000           -0.3568234              -9.7097
       705        2.0000           -0.3537297              -9.6255
       706        2.0000           -0.3522570              -9.5854
       707        2.0000           -0.3502385              -9.5305
       708        2.0000           -0.3259211              -8.8688 (HOMO)
       709                         -0.0812460              -2.2108 (LUMO)
       710                         -0.0764621              -2.0806
       711                         -0.0552070              -1.5023
       712                         -0.0511985              -1.3932
       713                         -0.0424619              -1.1554
       ...                                ...                  ...
      1062                          0.4657244              12.6730
      -------------------------------------------------------------
                  HL-Gap            0.2446751 Eh            6.6579 eV
             Fermi-level           -0.2035836 Eh           -5.5398 eV
 
 localization/xTB-IFF output generation
 averaging CT terms over            1  occ. levels
 averaging CT terms over            2  virt. levels
 dipole moment from electron density (au)
     X       Y       Z   
  -1.5430   1.0630  -1.3464  total (Debye):    5.865
cpu  time for init local    0.42 s
wall time for init local    0.21 s
 doing rotations ...
 initialization of trafo matrix to unity

 converged in     16 iterations, threshold :   0.99990928D-06
 doing transformations ...
 lmo centers(Z=2) and atoms on file <lmocent.coord>
 LMO Fii/eV  ncent    charge center   contributions...
    1 LP   *******   0.00 -12.24400  -0.59017  10.07108  322O :  8.46  340O :  5.56   55O :  5.10  310O :  4.77  208O :  4.54   28O :  4.46  403O :  3.56  388O :  3.27  268O :  3.27  238O :  3.24  406O :  2.93  283O :  2.93
   31O :  2.90  103O :  2.85  145O :  2.76  235O :  2.76  178O :  2.74  490O :  2.68   64O :  2.66  280O :  2.62  454O :  2.50  433O :  2.34  133O :  2.28  286O :  2.25
  247O :  2.17  199O :  2.07  154O :  2.01  259O :  1.96  115O :  1.95  445O :  1.94    4O :  1.92  439O :  1.92   25O :  1.91  379O :  1.86  430O :  1.85  127O :  1.85
  370O :  1.80  442O :  1.75  394O :  1.71    7O :  1.69  295O :  1.68  121O :  1.67  106O :  1.65  163O :  1.61   43O :  1.58  484O :  1.57   94O :  1.54  385O :  1.53
  217O :  1.50  493O :  1.50  139O :  1.46  100O :  1.46   58O :  1.45  436O :  1.44  241O :  1.44  424O :  1.44  292O :  1.43  421O :  1.42  226O :  1.40  526O :  1.36
  112O :  1.31  427O :  1.31  289O :  1.29  451O :  1.28  412O :  1.25  352O :  1.24  382O :  1.24  250O :  1.24  457O :  1.21  469O :  1.20   19O :  1.17   52O :  1.17
   67O :  1.17   37O :  1.15  184O :  1.13  124O :  1.11  160O :  1.11  205O :  1.10  337O :  1.08  334O :  1.07  505O :  1.06  376O :  1.04   10O :  1.03   49O :  1.00
  514O :  0.97  397O :  0.96  172O :  0.96  109O :  0.95  529O :  0.94  472O :  0.91  142O :  0.90   97O :  0.89  343O :  0.88  481O :  0.87  223O :  0.86  220O :  0.85
   34O :  0.84  373O :  0.83   13O :  0.81   73O :  0.81  148O :  0.81  210H :  0.80  262O :  0.80  277O :  0.80  316O :  0.80  211O :  0.78   61O :  0.76  478O :  0.75
  214O :  0.73  346O :  0.73  130O :  0.72  408H :  0.69  169O :  0.68  520O :  0.67  190O :  0.66   88O :  0.65   76O :  0.65  298O :  0.63  496O :  0.63  202O :  0.62
  253O :  0.60  265O :  0.60  466O :  0.59  181O :  0.59  418O :  0.59  499O :  0.58  328O :  0.58  136O :  0.56  358O :  0.56  244O :  0.55  157O :  0.54  331O :  0.54
  448O :  0.54  196O :  0.52  325O :  0.52   82O :  0.50   33H :  0.49   40O :  0.47  229O :  0.47  304O :  0.46  301O :  0.45  193O :  0.43  355O :  0.43  270H :  0.42
  166O :  0.42  349O :  0.42  502O :  0.39  364O :  0.39  118O :  0.38  256O :  0.38  475O :  0.38  271O :  0.38  391O :  0.37  444H :  0.37   57H :  0.36  201H :  0.35
  511O :  0.35    5H :  0.34  175O :  0.33  381H :  0.33   85O :  0.32  434H :  0.32  165H :  0.31  324H :  0.29  111H :  0.29  307O :  0.28  460O :  0.27  162H :  0.27
  151O :  0.26   75H :  0.26  441H :  0.25   46O :  0.25  530H :  0.24  288H :  0.24   45H :  0.23   30H :  0.23  390H :  0.23   69H :  0.23  249H :  0.23  122H :  0.22
  313O :  0.22   16O :  0.22  274O :  0.21   22O :  0.21  146H :  0.20   66H :  0.20   26H :  0.20  200H :  0.20  517O :  0.20   44H :  0.19  400O :  0.19  372H :  0.19
  341H :  0.19  237H :  0.18  504H :  0.18    1O :  0.18   95H :  0.18  386H :  0.18    8H :  0.17  507H :  0.17   70O :  0.17  515H :  0.16  261H :  0.16  492H :  0.16
  487O :  0.16  508O :  0.16  187O :  0.15  167H :  0.15  361O :  0.15  294H :  0.15  498H :  0.15  497H :  0.15  232O :  0.15  523O :  0.15  125H :  0.14  179H :  0.14
  336H :  0.13   91O :  0.13  483H :  0.13   36H :  0.13  260H :  0.13   54H :  0.13   29H :  0.13  501H :  0.12  452H :  0.12  367O :  0.12   56H :  0.12  423H :  0.12
  332H :  0.12  415O :  0.12  207H :  0.11  447H :  0.11  311H :  0.11  251H :  0.11  438H :  0.10   20H :  0.10  297H :  0.10   87H :  0.10  360H :  0.10  409O :  0.10
  319O :  0.09  435H :  0.09  182H :  0.09  453H :  0.09  281H :  0.09  192H :  0.09  338H :  0.09  197H :  0.09  348H :  0.09  231H :  0.08  206H :  0.08  509H :  0.08
  395H :  0.07   14H :  0.07  308H :  0.07  228H :  0.07    9H :  0.07  152H :  0.07  186H :  0.07   84H :  0.07
    2 LP   *******   0.00  -5.34156 -13.57497   6.13702  340O :  8.80   55O :  5.11  322O :  4.83  310O :  4.77  208O :  4.55   28O :  4.47  403O :  3.56  388O :  3.27  268O :  3.27  238O :  3.25  283O :  2.97  406O :  2.93
   31O :  2.90  103O :  2.85  145O :  2.76  235O :  2.76  178O :  2.75  490O :  2.68   64O :  2.67  280O :  2.62  454O :  2.51  433O :  2.35  133O :  2.28  286O :  2.25
  247O :  2.17  199O :  2.07  154O :  2.01  259O :  1.96  115O :  1.95  445O :  1.94    4O :  1.93  439O :  1.92   25O :  1.88  379O :  1.86  430O :  1.85  127O :  1.85
  370O :  1.81  442O :  1.75  394O :  1.72    7O :  1.69  295O :  1.68  121O :  1.67  106O :  1.65  163O :  1.61   43O :  1.58  484O :  1.57   94O :  1.54  385O :  1.53
  217O :  1.50  493O :  1.50  139O :  1.47  100O :  1.46   58O :  1.45  436O :  1.45  241O :  1.45  424O :  1.44  292O :  1.43  421O :  1.43  226O :  1.40  526O :  1.36
  112O :  1.31  427O :  1.31  289O :  1.29  451O :  1.29  412O :  1.25  352O :  1.25  382O :  1.25  250O :  1.24  457O :  1.21  469O :  1.20   19O :  1.18   52O :  1.17
   67O :  1.17   37O :  1.15  184O :  1.13  124O :  1.11  160O :  1.10  205O :  1.10  337O :  1.08  334O :  1.07  505O :  1.04  376O :  1.04   10O :  1.03   49O :  1.00
  514O :  0.97  397O :  0.96  172O :  0.96  109O :  0.95  529O :  0.94  472O :  0.91  142O :  0.91   97O :  0.89  343O :  0.88  481O :  0.87  223O :  0.86  220O :  0.85
   34O :  0.84  373O :  0.83   13O :  0.82  148O :  0.81   73O :  0.81  210H :  0.80  262O :  0.80  277O :  0.80  316O :  0.80  211O :  0.78   61O :  0.76  478O :  0.75
  214O :  0.73  346O :  0.73  130O :  0.72  408H :  0.69  169O :  0.68  520O :  0.67  190O :  0.66   88O :  0.65   76O :  0.65  298O :  0.63  496O :  0.63  202O :  0.62
  253O :  0.60  265O :  0.60  466O :  0.60  181O :  0.59  418O :  0.59  499O :  0.58  328O :  0.58  136O :  0.56  358O :  0.56  244O :  0.55  157O :  0.54  331O :  0.54
  448O :  0.54  196O :  0.52  325O :  0.52   82O :  0.50   33H :  0.49   40O :  0.47  229O :  0.47  304O :  0.46  301O :  0.45  193O :  0.43  355O :  0.43  270H :  0.42
  166O :  0.42  349O :  0.42  364O :  0.39  118O :  0.39  256O :  0.38  475O :  0.38  271O :  0.38  502O :  0.38  391O :  0.37  444H :  0.37   57H :  0.36  201H :  0.35
  511O :  0.35    5H :  0.34  381H :  0.33   85O :  0.32  175O :  0.32  434H :  0.32  324H :  0.32  165H :  0.31  111H :  0.29  307O :  0.28  460O :  0.27  162H :  0.27
  151O :  0.26   75H :  0.26  441H :  0.25   46O :  0.25  530H :  0.24  288H :  0.24   45H :  0.23   30H :  0.23  390H :  0.23   69H :  0.23  249H :  0.23  122H :  0.22
  313O :  0.22   16O :  0.22   22O :  0.21  274O :  0.21  146H :  0.20   66H :  0.20   26H :  0.20  200H :  0.20  517O :  0.20   44H :  0.19  400O :  0.19  372H :  0.19
  237H :  0.18    1O :  0.18   95H :  0.18  386H :  0.18  504H :  0.17    8H :  0.17  507H :  0.17   70O :  0.17  515H :  0.16  261H :  0.16  492H :  0.16  487O :  0.16
  341H :  0.16  508O :  0.16  187O :  0.16  167H :  0.15  361O :  0.15  294H :  0.15  498H :  0.15  497H :  0.15  232O :  0.15  523O :  0.15  125H :  0.14  179H :  0.14
  336H :  0.13   91O :  0.13  483H :  0.13   36H :  0.13  260H :  0.13   54H :  0.13   29H :  0.13  501H :  0.12  452H :  0.12  367O :  0.12   56H :  0.12  423H :  0.12
  332H :  0.12  415O :  0.12  207H :  0.11  447H :  0.11  311H :  0.11  251H :  0.11  438H :  0.10  297H :  0.10   87H :  0.10  360H :  0.10  409O :  0.10  319O :  0.09
  435H :  0.09  182H :  0.09  453H :  0.09  281H :  0.09  192H :  0.09  338H :  0.09  197H :  0.09  348H :  0.09  231H :  0.08  206H :  0.08   20H :  0.08  509H :  0.08
  395H :  0.07  308H :  0.07  228H :  0.07   14H :  0.07  152H :  0.07    9H :  0.07   84H :  0.07
    3 LP   *******   0.00   0.75546   2.14426   4.86108   28O :  6.50  340O :  4.82   55O :  4.44  322O :  4.18  310O :  4.13  208O :  3.93  403O :  3.08  388O :  2.84  268O :  2.83  238O :  2.81  283O :  2.57  406O :  2.54
   31O :  2.51  103O :  2.47  145O :  2.39  178O :  2.38  235O :  2.38  490O :  2.32   64O :  2.31  280O :  2.27  454O :  2.17  433O :  2.03  133O :  1.97  286O :  1.95
  247O :  1.88  199O :  1.80  154O :  1.74  259O :  1.69  115O :  1.69  445O :  1.68    4O :  1.67  439O :  1.67   25O :  1.65  379O :  1.61  430O :  1.60  127O :  1.60
  370O :  1.56  442O :  1.52  394O :  1.48    7O :  1.46  295O :  1.45  121O :  1.45  106O :  1.43  163O :  1.40   43O :  1.37  484O :  1.36   94O :  1.33  385O :  1.32
  217O :  1.30  493O :  1.30  139O :  1.27  100O :  1.26   58O :  1.26  241O :  1.25  436O :  1.25  292O :  1.24  424O :  1.24  421O :  1.23  226O :  1.21  526O :  1.18
  112O :  1.14  427O :  1.13  289O :  1.12  451O :  1.11  412O :  1.08  352O :  1.08  382O :  1.08  250O :  1.07  457O :  1.05  469O :  1.04   19O :  1.02   52O :  1.01
   67O :  1.01   37O :  1.00  184O :  0.98  124O :  0.96  160O :  0.95  205O :  0.95  337O :  0.94  334O :  0.93  505O :  0.92  376O :  0.90   10O :  0.89   49O :  0.87
  514O :  0.84  397O :  0.83  172O :  0.83  109O :  0.82  529O :  0.81  472O :  0.79  142O :  0.79   97O :  0.77  343O :  0.76  481O :  0.76  223O :  0.74  220O :  0.74
  373O :  0.72   13O :  0.71   73O :  0.70  148O :  0.70   34O :  0.70  262O :  0.69  210H :  0.69  277O :  0.69  316O :  0.69  211O :  0.68   61O :  0.66  478O :  0.65
  214O :  0.63  346O :  0.63  130O :  0.62  520O :  0.62  408H :  0.60  169O :  0.59  190O :  0.57   88O :  0.56   76O :  0.56  298O :  0.55  496O :  0.54  202O :  0.54
  253O :  0.52  265O :  0.52  466O :  0.52  181O :  0.51  418O :  0.51  499O :  0.51  328O :  0.50  136O :  0.49  358O :  0.48  244O :  0.47  157O :  0.47  331O :  0.47
  448O :  0.46  196O :  0.45  325O :  0.45   82O :  0.43   33H :  0.42   40O :  0.41  229O :  0.41  304O :  0.40  301O :  0.39  355O :  0.37  193O :  0.37  270H :  0.37
  166O :  0.37  349O :  0.36  364O :  0.34  118O :  0.33  256O :  0.33  475O :  0.33  271O :  0.33  502O :  0.33  391O :  0.32  444H :  0.32   57H :  0.31  201H :  0.30
  511O :  0.30    5H :  0.30  175O :  0.29  381H :  0.29   85O :  0.28  434H :  0.28  324H :  0.27  165H :  0.27  111H :  0.25  307O :  0.24  390H :  0.24  460O :  0.24
  162H :  0.23  151O :  0.22   75H :  0.22  441H :  0.22   46O :  0.21  530H :  0.21  288H :  0.21   45H :  0.20   69H :  0.20  249H :  0.20  122H :  0.19  313O :  0.19
   16O :  0.19   30H :  0.18  274O :  0.18   22O :  0.18  146H :  0.18   66H :  0.18   26H :  0.17  200H :  0.17  517O :  0.17   44H :  0.17  400O :  0.17  372H :  0.16
  341H :  0.16  237H :  0.16    1O :  0.16   95H :  0.16  386H :  0.15    8H :  0.15  504H :  0.15  507H :  0.15   70O :  0.15  515H :  0.14  261H :  0.14  492H :  0.14
  487O :  0.14  508O :  0.14  187O :  0.13  167H :  0.13  361O :  0.13  294H :  0.13  498H :  0.13  523O :  0.13  497H :  0.13  232O :  0.13  125H :  0.12  179H :  0.12
  336H :  0.12   91O :  0.11  483H :  0.11   36H :  0.11  260H :  0.11   54H :  0.11  501H :  0.11  367O :  0.11  452H :  0.10   56H :  0.10  423H :  0.10  332H :  0.10
  415O :  0.10  207H :  0.10   29H :  0.10  447H :  0.10  311H :  0.10  251H :  0.09  438H :  0.09   20H :  0.09  297H :  0.09   87H :  0.09  360H :  0.09  409O :  0.09
  319O :  0.08  435H :  0.08  182H :  0.08  453H :  0.08  281H :  0.07  192H :  0.07  338H :  0.07  197H :  0.07  348H :  0.07  231H :  0.07  206H :  0.07
    4 LP   *******   0.00  -9.34694  -4.66471   5.27862  208O :  5.30  340O :  4.00   55O :  3.67  322O :  3.47  310O :  3.43   28O :  3.21  403O :  2.56  388O :  2.35  268O :  2.35  238O :  2.33  283O :  2.13  406O :  2.11
   31O :  2.09  103O :  2.05  145O :  1.99  235O :  1.98  178O :  1.97  490O :  1.92   64O :  1.92  280O :  1.89  454O :  1.80  433O :  1.69  133O :  1.64  286O :  1.62
  210H :  1.61  247O :  1.56  199O :  1.49  154O :  1.45  259O :  1.41  115O :  1.40  445O :  1.40    4O :  1.38  439O :  1.38   25O :  1.37  379O :  1.34  430O :  1.33
  127O :  1.33  370O :  1.30  442O :  1.26  394O :  1.23    7O :  1.21  295O :  1.21  121O :  1.20  106O :  1.19  163O :  1.16   43O :  1.14  484O :  1.13   94O :  1.11
  385O :  1.10  217O :  1.08  493O :  1.08  139O :  1.06  100O :  1.05   58O :  1.04  436O :  1.04  241O :  1.04  424O :  1.03  292O :  1.03  421O :  1.02  226O :  1.00
  526O :  0.99  112O :  0.95  427O :  0.94  289O :  0.93  451O :  0.92  412O :  0.90  352O :  0.90  382O :  0.90  250O :  0.89  457O :  0.87  469O :  0.87   52O :  0.84
   67O :  0.84   37O :  0.83   19O :  0.83  184O :  0.81  124O :  0.80  160O :  0.79  205O :  0.79  337O :  0.78  334O :  0.77  505O :  0.76  376O :  0.75   10O :  0.74
   49O :  0.72  514O :  0.70  397O :  0.69  172O :  0.69  109O :  0.68  529O :  0.67  142O :  0.67  472O :  0.66   97O :  0.64  343O :  0.63  481O :  0.63  223O :  0.62
  220O :  0.61   34O :  0.60  373O :  0.60   13O :  0.59  148O :  0.58  262O :  0.58  277O :  0.58   73O :  0.57  316O :  0.57  211O :  0.56   61O :  0.55  478O :  0.54
  346O :  0.52  130O :  0.52  408H :  0.50  169O :  0.49  520O :  0.48  190O :  0.48  214O :  0.47   88O :  0.47   76O :  0.47  298O :  0.45  496O :  0.45  202O :  0.45
  253O :  0.43  265O :  0.43  466O :  0.43  181O :  0.43  418O :  0.42  499O :  0.42  328O :  0.42  136O :  0.41  358O :  0.40  244O :  0.39  157O :  0.39  331O :  0.39
  448O :  0.39  196O :  0.37  325O :  0.37   82O :  0.36   33H :  0.35   40O :  0.34  229O :  0.34  304O :  0.33  301O :  0.32  193O :  0.31  355O :  0.31  270H :  0.30
  166O :  0.30  349O :  0.30  364O :  0.28  118O :  0.28  256O :  0.28  475O :  0.28  271O :  0.27  502O :  0.27  391O :  0.27  444H :  0.27   57H :  0.26  201H :  0.25
  511O :  0.25    5H :  0.24  175O :  0.24  381H :  0.24   85O :  0.23  434H :  0.23  324H :  0.23  165H :  0.22  111H :  0.21  307O :  0.20  162H :  0.20  460O :  0.20
  151O :  0.19  441H :  0.18   46O :  0.18  530H :  0.17  288H :  0.17   45H :  0.17   30H :  0.17  390H :  0.17   75H :  0.16   69H :  0.16  249H :  0.16  122H :  0.16
  313O :  0.16   16O :  0.16   22O :  0.15  274O :  0.15  146H :  0.15   66H :  0.15  200H :  0.14  517O :  0.14   44H :  0.14  400O :  0.14  372H :  0.13  341H :  0.13
  237H :  0.13    1O :  0.13   95H :  0.13  386H :  0.13   26H :  0.13    8H :  0.13  504H :  0.13  507H :  0.12   70O :  0.12  515H :  0.12  261H :  0.12  492H :  0.12
  487O :  0.12  508O :  0.11  187O :  0.11  167H :  0.11  361O :  0.11  294H :  0.11  498H :  0.11  497H :  0.11  232O :  0.10  523O :  0.10  125H :  0.10  179H :  0.10
  336H :  0.10   91O :  0.09  483H :  0.09   36H :  0.09  260H :  0.09   54H :  0.09   29H :  0.09  501H :  0.09  452H :  0.09  367O :  0.09   56H :  0.09  423H :  0.08
  332H :  0.08  415O :  0.08  207H :  0.08  447H :  0.08  311H :  0.08  251H :  0.08   20H :  0.08  438H :  0.08  297H :  0.07   87H :  0.07  360H :  0.07  409O :  0.07
    5 LP   *******   0.00   4.60455  -7.23887 -10.79843  406O :  4.35  340O :  3.99   55O :  3.66  322O :  3.47  310O :  3.42  208O :  3.26   28O :  3.21  403O :  2.54  388O :  2.35  268O :  2.35  238O :  2.33  283O :  2.13
   31O :  2.08  103O :  2.05  145O :  1.98  235O :  1.98  178O :  1.97  490O :  1.92   64O :  1.91  280O :  1.88  454O :  1.80  433O :  1.68  133O :  1.63  286O :  1.61
  247O :  1.56  408H :  1.50  199O :  1.49  154O :  1.44  259O :  1.40  115O :  1.40  445O :  1.39    4O :  1.38  439O :  1.38   25O :  1.37  379O :  1.33  430O :  1.33
  127O :  1.33  370O :  1.29  442O :  1.26  394O :  1.23    7O :  1.21  295O :  1.20  121O :  1.20  106O :  1.19  163O :  1.16   43O :  1.14  484O :  1.12   94O :  1.10
  385O :  1.10  493O :  1.07  217O :  1.07  139O :  1.05  100O :  1.05   58O :  1.04  436O :  1.04  241O :  1.04  424O :  1.03  292O :  1.03  421O :  1.02  226O :  1.00
  526O :  0.98  112O :  0.94  427O :  0.94  289O :  0.92  451O :  0.92  412O :  0.90  382O :  0.89  250O :  0.89  457O :  0.87  469O :  0.86   19O :  0.84   52O :  0.84
   67O :  0.84   37O :  0.83  184O :  0.81  124O :  0.79  160O :  0.79  205O :  0.79  337O :  0.78  334O :  0.77  352O :  0.77  505O :  0.76  376O :  0.75   10O :  0.74
   49O :  0.72  514O :  0.70  397O :  0.69  172O :  0.69  109O :  0.68  529O :  0.67  472O :  0.65  142O :  0.65   97O :  0.64  343O :  0.63  481O :  0.62  223O :  0.62
  220O :  0.61   34O :  0.60  373O :  0.60   13O :  0.59   73O :  0.58  148O :  0.58  262O :  0.58  210H :  0.58  277O :  0.58  316O :  0.57  211O :  0.56   61O :  0.55
  478O :  0.54  214O :  0.53  346O :  0.52  130O :  0.52  169O :  0.49  520O :  0.48  190O :  0.48   88O :  0.47   76O :  0.47  298O :  0.45  496O :  0.45  202O :  0.45
  253O :  0.43  265O :  0.43  466O :  0.43  181O :  0.42  418O :  0.42  499O :  0.42  328O :  0.42  136O :  0.40  358O :  0.40  244O :  0.39  157O :  0.39  331O :  0.39
  448O :  0.38  196O :  0.37  325O :  0.37   82O :  0.36   33H :  0.35   40O :  0.34  229O :  0.34  304O :  0.33  301O :  0.32  193O :  0.31  355O :  0.31  270H :  0.30
  166O :  0.30  349O :  0.30  364O :  0.28  118O :  0.28  256O :  0.28  475O :  0.27  271O :  0.27  502O :  0.27  391O :  0.27  444H :  0.27   57H :  0.26  511O :  0.25
    5H :  0.25  201H :  0.25  175O :  0.24  381H :  0.24   85O :  0.23  434H :  0.23  324H :  0.23  165H :  0.22  111H :  0.21  307O :  0.20  460O :  0.19  162H :  0.19
  151O :  0.19   75H :  0.19  441H :  0.18   46O :  0.18  530H :  0.17  288H :  0.17   45H :  0.17   30H :  0.17  390H :  0.17   69H :  0.16  249H :  0.16  122H :  0.16
  313O :  0.16   16O :  0.16  274O :  0.15   22O :  0.15  146H :  0.15   66H :  0.15   26H :  0.14   44H :  0.14  200H :  0.14  400O :  0.14  517O :  0.14  372H :  0.13
  341H :  0.13  237H :  0.13    1O :  0.13   95H :  0.13  386H :  0.13  504H :  0.13    8H :  0.13  507H :  0.12   70O :  0.12  515H :  0.12  261H :  0.12  492H :  0.12
  487O :  0.12  508O :  0.11  187O :  0.11  167H :  0.11  361O :  0.11  294H :  0.11  498H :  0.11  497H :  0.11  232O :  0.10  523O :  0.10  125H :  0.10  179H :  0.10
  336H :  0.10   91O :  0.09  483H :  0.09   36H :  0.09  260H :  0.09   54H :  0.09   29H :  0.09  501H :  0.09  452H :  0.09  367O :  0.09   56H :  0.09  423H :  0.08
  332H :  0.08  415O :  0.08  207H :  0.08  447H :  0.08  311H :  0.08  251H :  0.08  438H :  0.07   20H :  0.07  297H :  0.07   87H :  0.07  360H :  0.07  409O :  0.07
    6 LP   *******   0.00  -6.68670  -2.88930   2.85688  208O :  5.05  340O :  3.57   55O :  3.27  322O :  3.10  310O :  3.06   28O :  2.86  403O :  2.28  388O :  2.10  268O :  2.09  238O :  2.08  283O :  1.90  406O :  1.88
   31O :  1.86  103O :  1.83  145O :  1.77  235O :  1.77  178O :  1.76  490O :  1.72   64O :  1.71  280O :  1.68  454O :  1.60  433O :  1.50  133O :  1.46  286O :  1.44
  247O :  1.39  199O :  1.33  154O :  1.29  259O :  1.25  115O :  1.25  445O :  1.24   25O :  1.24    4O :  1.24  439O :  1.23  379O :  1.19  430O :  1.19  127O :  1.18
  370O :  1.16  442O :  1.12  394O :  1.10    7O :  1.08  295O :  1.07  121O :  1.07  106O :  1.06  163O :  1.03   43O :  1.01  484O :  1.00   94O :  0.99  385O :  0.98
  217O :  0.96  493O :  0.96  139O :  0.94  100O :  0.93   58O :  0.93  436O :  0.93  241O :  0.93  424O :  0.92  292O :  0.92  421O :  0.91  226O :  0.89  526O :  0.88
  112O :  0.84  427O :  0.84  289O :  0.82  451O :  0.82  412O :  0.80  352O :  0.80  382O :  0.80  250O :  0.79  457O :  0.78  469O :  0.77   52O :  0.75   67O :  0.75
   37O :  0.74   19O :  0.74  184O :  0.72  124O :  0.71  160O :  0.70  205O :  0.70  337O :  0.69  334O :  0.69  505O :  0.68  376O :  0.67   10O :  0.66   49O :  0.64
  514O :  0.62  397O :  0.61  172O :  0.61  109O :  0.61  529O :  0.60  142O :  0.59  472O :  0.58   97O :  0.57  343O :  0.56   73O :  0.56  481O :  0.56  223O :  0.55
  220O :  0.54   34O :  0.54  373O :  0.54   13O :  0.53  148O :  0.52  262O :  0.51  277O :  0.51  316O :  0.51  211O :  0.50   61O :  0.49  478O :  0.48  346O :  0.47
  214O :  0.46  210H :  0.45  130O :  0.45  408H :  0.44  169O :  0.44  520O :  0.43  190O :  0.42   88O :  0.42   76O :  0.42  298O :  0.40  496O :  0.40  202O :  0.40
  253O :  0.39  265O :  0.39  466O :  0.38  181O :  0.38  418O :  0.38  499O :  0.37  328O :  0.37  136O :  0.36  358O :  0.36  244O :  0.35  157O :  0.35  331O :  0.35
  448O :  0.34  196O :  0.33  325O :  0.33   82O :  0.32   33H :  0.31   40O :  0.30  229O :  0.30  304O :  0.30  301O :  0.29   75H :  0.27  355O :  0.27  193O :  0.27
  270H :  0.27  166O :  0.27  349O :  0.27  364O :  0.25  118O :  0.25  256O :  0.25  475O :  0.25  271O :  0.24  502O :  0.24  391O :  0.24  444H :  0.24   57H :  0.23
  201H :  0.22  511O :  0.22    5H :  0.22  175O :  0.21  381H :  0.21   85O :  0.20  434H :  0.20  324H :  0.20  165H :  0.20  111H :  0.18  307O :  0.18  460O :  0.17
  162H :  0.17  151O :  0.17  441H :  0.16   46O :  0.16  530H :  0.16  288H :  0.15   45H :  0.15   30H :  0.15  390H :  0.15   26H :  0.15   69H :  0.15  249H :  0.14
  122H :  0.14  313O :  0.14   16O :  0.14  274O :  0.13   22O :  0.13  146H :  0.13   66H :  0.13  200H :  0.13  517O :  0.13   44H :  0.12  400O :  0.12  372H :  0.12
  341H :  0.12  237H :  0.12    1O :  0.12   95H :  0.11  386H :  0.11    8H :  0.11  504H :  0.11  507H :  0.11   70O :  0.11  515H :  0.11  261H :  0.11  492H :  0.10
  487O :  0.10  508O :  0.10  187O :  0.10  167H :  0.10  361O :  0.10  294H :  0.10  498H :  0.10  497H :  0.09  232O :  0.09  523O :  0.09  125H :  0.09  179H :  0.09
  336H :  0.09   91O :  0.08  483H :  0.08   36H :  0.08  260H :  0.08   54H :  0.08   29H :  0.08  501H :  0.08  452H :  0.08  367O :  0.08  311H :  0.08   56H :  0.08
  423H :  0.08  332H :  0.08  415O :  0.07  207H :  0.07  447H :  0.07
    7 LP   *******   0.01   4.20028   0.75958   3.98975   55O :  5.26  340O :  3.45  322O :  3.00  310O :  2.96  208O :  2.82   28O :  2.78  403O :  2.21  388O :  2.03  268O :  2.03  238O :  2.01  283O :  1.84  406O :  1.82
   31O :  1.80  103O :  1.76  145O :  1.71  235O :  1.71  178O :  1.70  490O :  1.66   64O :  1.65  280O :  1.63  454O :  1.55  433O :  1.45  133O :  1.41  286O :  1.39
  247O :  1.35  199O :  1.28  154O :  1.25  259O :  1.21  115O :  1.21  445O :  1.20    4O :  1.19  439O :  1.19   25O :  1.18  379O :  1.15  430O :  1.15  127O :  1.14
  370O :  1.12  442O :  1.09  394O :  1.06  295O :  1.04  121O :  1.04    7O :  1.04  106O :  1.03  163O :  1.00   43O :  0.98  484O :  0.97   94O :  0.95  385O :  0.95
  217O :  0.93  493O :  0.93  139O :  0.91  100O :  0.90   58O :  0.90  436O :  0.90  241O :  0.90  424O :  0.89  292O :  0.89  421O :  0.88  226O :  0.87  526O :  0.84
  112O :  0.81  427O :  0.81  289O :  0.80  451O :  0.80  412O :  0.77  352O :  0.77  382O :  0.77  250O :  0.77  457O :  0.75   67O :  0.75  469O :  0.75   19O :  0.73
   52O :  0.72   37O :  0.71  184O :  0.70  124O :  0.69  160O :  0.68  205O :  0.68  337O :  0.67  334O :  0.66  505O :  0.66  376O :  0.65   49O :  0.62   10O :  0.61
  514O :  0.60  397O :  0.59  172O :  0.59  109O :  0.59  529O :  0.58  472O :  0.57  142O :  0.56   97O :  0.55  343O :  0.54  481O :  0.54  223O :  0.53  220O :  0.53
   34O :  0.52  373O :  0.52   13O :  0.51   73O :  0.50  148O :  0.50  262O :  0.50  210H :  0.50  277O :  0.50  316O :  0.50  211O :  0.49   61O :  0.47  478O :  0.47
  214O :  0.46  346O :  0.45  130O :  0.45  408H :  0.43  169O :  0.42  520O :  0.42  190O :  0.41   88O :  0.40   76O :  0.40  298O :  0.39  496O :  0.39  202O :  0.38
  253O :  0.37  265O :  0.37  466O :  0.37  181O :  0.37  499O :  0.36  418O :  0.36  328O :  0.36  136O :  0.35  358O :  0.35  244O :  0.34  157O :  0.34  331O :  0.34
  448O :  0.33  196O :  0.32  325O :  0.32   82O :  0.31   33H :  0.30   40O :  0.29  229O :  0.29  304O :  0.29  301O :  0.28  193O :  0.27  355O :  0.26  270H :  0.26
  166O :  0.26  349O :  0.26  364O :  0.24  118O :  0.24  256O :  0.24  271O :  0.24  475O :  0.24  502O :  0.24  391O :  0.23  444H :  0.23  201H :  0.22  511O :  0.22
    5H :  0.21  175O :  0.21  381H :  0.21   85O :  0.20  434H :  0.20  324H :  0.20  165H :  0.19  307O :  0.17  111H :  0.17  460O :  0.17   57H :  0.17  162H :  0.17
  151O :  0.16   75H :  0.16  441H :  0.15   46O :  0.15  530H :  0.15  288H :  0.15   45H :  0.15  390H :  0.14   69H :  0.14  249H :  0.14  122H :  0.14  313O :  0.14
   16O :  0.14   30H :  0.13  274O :  0.13   22O :  0.13  146H :  0.13   66H :  0.13   26H :  0.13  200H :  0.12  517O :  0.12   44H :  0.12  400O :  0.12  372H :  0.12
  341H :  0.12  237H :  0.11    1O :  0.11   95H :  0.11  386H :  0.11  504H :  0.11  507H :  0.11   70O :  0.10  515H :  0.10  261H :  0.10  492H :  0.10  487O :  0.10
  508O :  0.10    8H :  0.10  187O :  0.10  167H :  0.10  361O :  0.10  294H :  0.09  498H :  0.09  497H :  0.09  523O :  0.09  232O :  0.09  125H :  0.09  179H :  0.08
  336H :  0.08   36H :  0.08   91O :  0.08  483H :  0.08  260H :  0.08   54H :  0.08   29H :  0.08  501H :  0.08  452H :  0.08  367O :  0.08  423H :  0.07  332H :  0.07
  415O :  0.07  207H :  0.07
    8 LP   *******   0.01  -6.02373  -2.57103  -1.62861  310O :  4.51  340O :  3.12   55O :  2.86  322O :  2.71  208O :  2.55   28O :  2.50  403O :  2.00  388O :  1.83  268O :  1.83  238O :  1.82  283O :  1.66  406O :  1.64
   31O :  1.62  103O :  1.60  145O :  1.55  235O :  1.55  178O :  1.54  490O :  1.50   64O :  1.49  280O :  1.47  454O :  1.40  433O :  1.31  133O :  1.28  286O :  1.26
  247O :  1.22  199O :  1.16  154O :  1.13  259O :  1.10  115O :  1.09  445O :  1.09    4O :  1.08  439O :  1.08   25O :  1.07  379O :  1.04  430O :  1.04  127O :  1.04
  370O :  1.01  442O :  0.98    7O :  0.95  394O :  0.94  295O :  0.94  121O :  0.94  106O :  0.93  163O :  0.90   43O :  0.89  484O :  0.88   94O :  0.86  385O :  0.86
  217O :  0.84  493O :  0.84  139O :  0.83  100O :  0.82   58O :  0.81  241O :  0.81  436O :  0.81  424O :  0.81  292O :  0.80  421O :  0.80  226O :  0.78  526O :  0.76
  112O :  0.74  427O :  0.73  289O :  0.72  451O :  0.72  412O :  0.70  352O :  0.70  382O :  0.70  250O :  0.70  457O :  0.68  469O :  0.68   19O :  0.66   67O :  0.65
   52O :  0.65   37O :  0.65  184O :  0.63  124O :  0.62  160O :  0.62  205O :  0.61  337O :  0.61  334O :  0.60  505O :  0.59  376O :  0.58   10O :  0.58   49O :  0.56
  514O :  0.54  397O :  0.54  172O :  0.54  109O :  0.53  529O :  0.53   97O :  0.51  472O :  0.51  142O :  0.51  343O :  0.49  481O :  0.49  223O :  0.48  220O :  0.48
   34O :  0.47  373O :  0.47   13O :  0.46  148O :  0.45   73O :  0.45  210H :  0.45  262O :  0.45  277O :  0.45  316O :  0.45  211O :  0.44   61O :  0.43  478O :  0.42
  214O :  0.41  346O :  0.41  130O :  0.40  408H :  0.39  169O :  0.38  520O :  0.38  190O :  0.37   88O :  0.36   76O :  0.36  298O :  0.36  496O :  0.35  202O :  0.35
  253O :  0.34  265O :  0.34  466O :  0.33  181O :  0.33  418O :  0.33  499O :  0.33  328O :  0.33  136O :  0.32  358O :  0.31  244O :  0.31  157O :  0.31  331O :  0.30
  448O :  0.30  196O :  0.29  325O :  0.29   82O :  0.28   33H :  0.27   40O :  0.26  229O :  0.26  304O :  0.26  301O :  0.25  193O :  0.24  355O :  0.24  270H :  0.24
  166O :  0.24  349O :  0.24  364O :  0.22  118O :  0.22  256O :  0.22  475O :  0.21  271O :  0.21  502O :  0.21  391O :  0.21  444H :  0.21   57H :  0.20  201H :  0.20
  511O :  0.19    5H :  0.19  175O :  0.19  381H :  0.19   85O :  0.18  434H :  0.18  324H :  0.18  165H :  0.17  111H :  0.16  307O :  0.16   75H :  0.15  460O :  0.15
  162H :  0.15  151O :  0.15  441H :  0.14   46O :  0.14  288H :  0.14  530H :  0.14   45H :  0.13   30H :  0.13  390H :  0.13   69H :  0.13  249H :  0.13  122H :  0.12
  313O :  0.12   16O :  0.12  274O :  0.12   22O :  0.12  146H :  0.11   66H :  0.11   26H :  0.11  200H :  0.11  517O :  0.11   44H :  0.11  400O :  0.11  372H :  0.10
  341H :  0.10  237H :  0.10    1O :  0.10   95H :  0.10  386H :  0.10    8H :  0.10  504H :  0.10  507H :  0.10   70O :  0.09  515H :  0.09  261H :  0.09  487O :  0.09
  492H :  0.09  508O :  0.09  187O :  0.09  167H :  0.09  361O :  0.09  294H :  0.09  498H :  0.08  497H :  0.08  232O :  0.08  523O :  0.08  125H :  0.08  179H :  0.08
  336H :  0.08   91O :  0.07  483H :  0.07   36H :  0.07  260H :  0.07   54H :  0.07   29H :  0.07
    9 LP   *******   0.01  11.73623   5.85577  -0.60576  268O :  3.91  340O :  3.03   55O :  2.78  322O :  2.63  310O :  2.60  208O :  2.48   28O :  2.43  403O :  1.94  388O :  1.78  238O :  1.77  283O :  1.62  406O :  1.60
   31O :  1.58  103O :  1.55  145O :  1.51  235O :  1.50  178O :  1.50  490O :  1.46   64O :  1.45  280O :  1.43  454O :  1.36  433O :  1.28  133O :  1.24  286O :  1.23
  247O :  1.18  199O :  1.13  154O :  1.10  115O :  1.06  445O :  1.06  259O :  1.05    4O :  1.05  439O :  1.05   25O :  1.04  379O :  1.01  430O :  1.01  127O :  1.01
  370O :  0.98  442O :  0.95  394O :  0.93    7O :  0.92  295O :  0.91  121O :  0.91  106O :  0.90  163O :  0.88   43O :  0.86   94O :  0.84  484O :  0.83  385O :  0.83
  217O :  0.82  493O :  0.82  139O :  0.80  100O :  0.79   58O :  0.79  436O :  0.79  241O :  0.79  292O :  0.78  421O :  0.78  424O :  0.77  226O :  0.76  526O :  0.74
  112O :  0.72  427O :  0.71  289O :  0.70  451O :  0.70  412O :  0.68  352O :  0.68  250O :  0.68  382O :  0.67  457O :  0.66  469O :  0.66   19O :  0.64   67O :  0.64
   52O :  0.64   37O :  0.63  184O :  0.62  124O :  0.60  160O :  0.60  205O :  0.60  337O :  0.59  334O :  0.58  505O :  0.58  376O :  0.57   10O :  0.56   49O :  0.55
  514O :  0.53  397O :  0.52  172O :  0.52  109O :  0.52  529O :  0.51  472O :  0.50  142O :  0.50   97O :  0.48  343O :  0.48  481O :  0.47  223O :  0.47  220O :  0.46
   34O :  0.46  373O :  0.45   13O :  0.45   73O :  0.44  148O :  0.44  262O :  0.44  277O :  0.44  210H :  0.44  316O :  0.44  211O :  0.43   61O :  0.42  478O :  0.41
  214O :  0.40  346O :  0.40  130O :  0.39  408H :  0.38  169O :  0.37  520O :  0.37  190O :  0.36   88O :  0.36   76O :  0.35  298O :  0.34  496O :  0.34  202O :  0.34
  253O :  0.33  265O :  0.33  466O :  0.32  181O :  0.32  418O :  0.32  328O :  0.32  499O :  0.32  136O :  0.31  358O :  0.30  244O :  0.30  157O :  0.30  331O :  0.30
  448O :  0.29  196O :  0.28  325O :  0.28   82O :  0.27   33H :  0.26   40O :  0.26  229O :  0.26  304O :  0.25  301O :  0.25  193O :  0.24  355O :  0.23  349O :  0.23
  166O :  0.22  364O :  0.21  118O :  0.21  256O :  0.21  475O :  0.21  271O :  0.21  502O :  0.21  391O :  0.20  444H :  0.20  270H :  0.20   57H :  0.20  201H :  0.19
  511O :  0.19    5H :  0.19  175O :  0.18  381H :  0.18   85O :  0.17  434H :  0.17  324H :  0.17  165H :  0.17  111H :  0.16  307O :  0.15  460O :  0.15  162H :  0.15
  151O :  0.14   75H :  0.14  441H :  0.14   46O :  0.13  530H :  0.13  288H :  0.13   45H :  0.13   30H :  0.13  390H :  0.13   69H :  0.12  249H :  0.12  122H :  0.12
  313O :  0.12   16O :  0.12   22O :  0.11  274O :  0.11   66H :  0.11   26H :  0.11  200H :  0.11  517O :  0.11   44H :  0.11  146H :  0.10  400O :  0.10  372H :  0.10
  341H :  0.10  237H :  0.10    1O :  0.10   95H :  0.10  386H :  0.10  504H :  0.10    8H :  0.09  507H :  0.09   70O :  0.09  515H :  0.09  492H :  0.09  487O :  0.09
  508O :  0.09  187O :  0.08  361O :  0.08  294H :  0.08  167H :  0.08  498H :  0.08  232O :  0.08  523O :  0.08  497H :  0.08  125H :  0.08  261H :  0.08  336H :  0.07
   91O :  0.07  483H :  0.07   36H :  0.07
   10 LP   *******   0.01  14.10652   3.67283  -3.86081  145O :  3.76  340O :  3.00   55O :  2.75  322O :  2.60  310O :  2.57  208O :  2.45   28O :  2.41  403O :  1.92  268O :  1.77  388O :  1.76  238O :  1.75  283O :  1.60
  406O :  1.58   31O :  1.56  103O :  1.54  235O :  1.49  178O :  1.48  490O :  1.44   64O :  1.44  280O :  1.41  454O :  1.35  433O :  1.26  133O :  1.23  286O :  1.21
  247O :  1.17  199O :  1.12  154O :  1.08  115O :  1.06  259O :  1.05  439O :  1.05  445O :  1.05    4O :  1.04   25O :  1.03  379O :  1.00  430O :  1.00  127O :  0.99
  370O :  0.97  442O :  0.94  394O :  0.92    7O :  0.91  295O :  0.90  121O :  0.90  106O :  0.89  163O :  0.87   43O :  0.85  484O :  0.84   94O :  0.83  385O :  0.82
  217O :  0.81  493O :  0.81  139O :  0.79  100O :  0.78   58O :  0.78  436O :  0.78  241O :  0.78  424O :  0.77  292O :  0.77  421O :  0.77  226O :  0.75  526O :  0.73
  112O :  0.71  427O :  0.70  289O :  0.69  451O :  0.69  412O :  0.67  352O :  0.67  382O :  0.67  250O :  0.67  457O :  0.65  469O :  0.65   19O :  0.63   52O :  0.63
   67O :  0.63   37O :  0.62  184O :  0.61  124O :  0.60  160O :  0.59  205O :  0.59  337O :  0.58  334O :  0.58  505O :  0.57  376O :  0.56   10O :  0.55   49O :  0.54
  514O :  0.52  397O :  0.52  172O :  0.52  109O :  0.51  529O :  0.50  472O :  0.49  142O :  0.49   97O :  0.48  343O :  0.47  481O :  0.47  223O :  0.46  220O :  0.46
   34O :  0.45  373O :  0.45   13O :  0.44   73O :  0.44  148O :  0.44  262O :  0.43  210H :  0.43  277O :  0.43  316O :  0.43  211O :  0.42   61O :  0.41  478O :  0.41
  214O :  0.39  346O :  0.39  130O :  0.39  408H :  0.37  169O :  0.37  520O :  0.36  190O :  0.36   88O :  0.35   76O :  0.35  496O :  0.34  298O :  0.34  202O :  0.33
  253O :  0.32  265O :  0.32  466O :  0.32  181O :  0.32  418O :  0.32  499O :  0.31  328O :  0.31  136O :  0.30  358O :  0.30  244O :  0.29  157O :  0.29  331O :  0.29
  448O :  0.29  196O :  0.28  325O :  0.28   82O :  0.27   33H :  0.26   40O :  0.25  229O :  0.25  304O :  0.25  301O :  0.24  166O :  0.23  355O :  0.23  193O :  0.23
  349O :  0.23  364O :  0.21  270H :  0.21  118O :  0.21  256O :  0.21  475O :  0.21  271O :  0.21  502O :  0.20  391O :  0.20  444H :  0.20   57H :  0.19  201H :  0.19
  511O :  0.19    5H :  0.18  175O :  0.18  381H :  0.18   85O :  0.17  434H :  0.17  324H :  0.17  165H :  0.17  111H :  0.15  307O :  0.15  460O :  0.15  162H :  0.15
  151O :  0.14   75H :  0.14  441H :  0.13   46O :  0.13  530H :  0.13  288H :  0.13   45H :  0.13   30H :  0.13  390H :  0.13   69H :  0.12  249H :  0.12  122H :  0.12
  313O :  0.12   16O :  0.12   22O :  0.11  274O :  0.11   66H :  0.11   26H :  0.11  116H :  0.11  200H :  0.11  517O :  0.11   44H :  0.10  400O :  0.10  372H :  0.10
  341H :  0.10  237H :  0.10    1O :  0.10   95H :  0.10  386H :  0.10    8H :  0.09  504H :  0.09  507H :  0.09   70O :  0.09  261H :  0.09  515H :  0.09  146H :  0.09
  492H :  0.09  487O :  0.09  508O :  0.09  187O :  0.08  361O :  0.08  294H :  0.08  498H :  0.08  497H :  0.08  167H :  0.08  232O :  0.08  523O :  0.08  125H :  0.08
  179H :  0.07  336H :  0.07   91O :  0.07  483H :  0.07
   11 LP   *******   0.01  -8.85534  -2.91012  -2.71938  310O :  4.23  340O :  2.92   55O :  2.68  322O :  2.54  208O :  2.39   28O :  2.35  403O :  1.87  388O :  1.72  268O :  1.72  238O :  1.70  283O :  1.56  406O :  1.54
   31O :  1.52  103O :  1.50  145O :  1.45  235O :  1.45  178O :  1.44  490O :  1.41   64O :  1.40  280O :  1.38  454O :  1.32  433O :  1.23  133O :  1.20  286O :  1.18
  247O :  1.14  199O :  1.09  154O :  1.06  259O :  1.03  115O :  1.02  445O :  1.02    4O :  1.01  439O :  1.01   25O :  1.00  379O :  0.98  430O :  0.97  127O :  0.97
  370O :  0.95  442O :  0.92    7O :  0.89  295O :  0.88  121O :  0.88  394O :  0.88  106O :  0.87  163O :  0.85   43O :  0.83  484O :  0.82   94O :  0.81  385O :  0.80
  217O :  0.79  493O :  0.79  100O :  0.77   58O :  0.76  436O :  0.76  241O :  0.76  424O :  0.75  139O :  0.75  292O :  0.75  421O :  0.75  226O :  0.73  526O :  0.71
  112O :  0.69  427O :  0.69  289O :  0.68  451O :  0.68  412O :  0.66  382O :  0.65  352O :  0.65  250O :  0.65  457O :  0.64  469O :  0.63   19O :  0.62   52O :  0.61
   67O :  0.61   37O :  0.60  184O :  0.59  124O :  0.58  160O :  0.58  205O :  0.58  337O :  0.57  334O :  0.56  505O :  0.56  376O :  0.55   10O :  0.54   49O :  0.52
  514O :  0.51  397O :  0.50  172O :  0.50  109O :  0.50  529O :  0.49  472O :  0.48  142O :  0.48   97O :  0.47  343O :  0.46  481O :  0.46  223O :  0.45  220O :  0.45
   34O :  0.44  373O :  0.44   13O :  0.43   73O :  0.43  148O :  0.43  262O :  0.42  210H :  0.42  277O :  0.42  316O :  0.42  211O :  0.41   61O :  0.40  478O :  0.40
  214O :  0.39  346O :  0.38  130O :  0.38  408H :  0.36  169O :  0.36  520O :  0.35  190O :  0.35   88O :  0.34   76O :  0.34  496O :  0.33  298O :  0.33  202O :  0.33
  253O :  0.32  265O :  0.32  466O :  0.31  181O :  0.31  418O :  0.31  499O :  0.31  328O :  0.31  136O :  0.30  358O :  0.29  244O :  0.29  157O :  0.29  331O :  0.28
  448O :  0.28  196O :  0.27  325O :  0.27   82O :  0.26   33H :  0.25   40O :  0.25  229O :  0.25  304O :  0.24  301O :  0.24  355O :  0.22  193O :  0.22  270H :  0.22
  166O :  0.22  349O :  0.22  364O :  0.20  118O :  0.20  256O :  0.20  475O :  0.20  271O :  0.20  502O :  0.20  391O :  0.20  444H :  0.19   57H :  0.19  201H :  0.18
  511O :  0.18    5H :  0.18  175O :  0.18  381H :  0.17   85O :  0.17  434H :  0.17  324H :  0.17  165H :  0.16  111H :  0.15  307O :  0.15  460O :  0.14  162H :  0.14
  151O :  0.14   75H :  0.13  441H :  0.13   46O :  0.13  530H :  0.13  288H :  0.13   45H :  0.12   30H :  0.12  390H :  0.12   69H :  0.12  249H :  0.12  122H :  0.12
  313O :  0.12   16O :  0.12  274O :  0.11   22O :  0.11  146H :  0.11   66H :  0.11   26H :  0.11  200H :  0.11  517O :  0.10  400O :  0.10   44H :  0.10  372H :  0.10
  341H :  0.10  237H :  0.10    1O :  0.10   95H :  0.09  386H :  0.09  504H :  0.09    8H :  0.09  507H :  0.09   70O :  0.09  515H :  0.09  261H :  0.09  492H :  0.09
  487O :  0.08  508O :  0.08  187O :  0.08  167H :  0.08  361O :  0.08  294H :  0.08  498H :  0.08  497H :  0.08  232O :  0.08  523O :  0.08  125H :  0.07  179H :  0.07
  336H :  0.07
   12 LP   *******   0.01  -5.51405   4.97649 -12.99726  454O :  3.43  340O :  2.89   55O :  2.65  322O :  2.51  310O :  2.48  208O :  2.36   28O :  2.32  403O :  1.85  388O :  1.70  268O :  1.70  238O :  1.69  283O :  1.54
  406O :  1.52   31O :  1.51  103O :  1.48  145O :  1.44  235O :  1.43  178O :  1.43  490O :  1.39   64O :  1.39  280O :  1.36  433O :  1.22  133O :  1.18  286O :  1.17
  247O :  1.13  199O :  1.08  154O :  1.05  259O :  1.02  115O :  1.01  445O :  1.01    4O :  1.00  439O :  1.00   25O :  0.99  379O :  0.97  430O :  0.96  127O :  0.96
  370O :  0.94  442O :  0.91  394O :  0.89    7O :  0.88  295O :  0.87  121O :  0.87  106O :  0.86  163O :  0.84   43O :  0.82  484O :  0.81   94O :  0.80  385O :  0.80
  217O :  0.78  493O :  0.78  139O :  0.76  100O :  0.76   58O :  0.75  436O :  0.75  241O :  0.75  424O :  0.75  292O :  0.75  421O :  0.74  226O :  0.73  526O :  0.71
  112O :  0.68  427O :  0.68  289O :  0.67  451O :  0.67  412O :  0.65  382O :  0.65  352O :  0.65  250O :  0.64  457O :  0.63  469O :  0.63   19O :  0.61   67O :  0.61
   52O :  0.61   37O :  0.60  184O :  0.59  124O :  0.58  160O :  0.57  205O :  0.57  337O :  0.56  334O :  0.56  505O :  0.55  376O :  0.54   10O :  0.53   49O :  0.52
  514O :  0.51  397O :  0.50  172O :  0.50  109O :  0.49  529O :  0.49  472O :  0.47  142O :  0.47   97O :  0.46  343O :  0.46  481O :  0.45  223O :  0.45  220O :  0.44
   34O :  0.44  373O :  0.43   13O :  0.43   73O :  0.42  262O :  0.42  210H :  0.42  277O :  0.42  148O :  0.42  316O :  0.42  211O :  0.41   61O :  0.40  478O :  0.39
  214O :  0.38  346O :  0.38  130O :  0.37  408H :  0.36  169O :  0.35  520O :  0.35  190O :  0.34   88O :  0.34   76O :  0.34  298O :  0.33  496O :  0.33  202O :  0.32
  253O :  0.31  265O :  0.31  466O :  0.31  181O :  0.31  418O :  0.31  499O :  0.30  328O :  0.30  136O :  0.29  358O :  0.29  244O :  0.28  157O :  0.28  331O :  0.28
  448O :  0.28  196O :  0.27  325O :  0.27   82O :  0.26   33H :  0.25   40O :  0.25  229O :  0.24  304O :  0.24  301O :  0.23  193O :  0.22  355O :  0.22  270H :  0.22
  166O :  0.22  349O :  0.22  364O :  0.20  256O :  0.20  475O :  0.20  271O :  0.20  502O :  0.20  118O :  0.20  391O :  0.19  444H :  0.19   57H :  0.19  201H :  0.18
  511O :  0.18   85O :  0.18    5H :  0.18  175O :  0.17  381H :  0.17  434H :  0.17  324H :  0.16  165H :  0.16  111H :  0.15  307O :  0.15  460O :  0.14  162H :  0.14
  151O :  0.14   75H :  0.13  441H :  0.13   46O :  0.13  530H :  0.13  288H :  0.13   30H :  0.12  390H :  0.12   45H :  0.12   69H :  0.12  249H :  0.12  122H :  0.12
  313O :  0.12   16O :  0.11  274O :  0.11   22O :  0.11  146H :  0.11   66H :  0.11   26H :  0.11  200H :  0.10  517O :  0.10  372H :  0.10   44H :  0.10  400O :  0.10
  341H :  0.10  237H :  0.10    1O :  0.09   95H :  0.09  386H :  0.09  504H :  0.09    8H :  0.09  507H :  0.09   70O :  0.09  515H :  0.09  261H :  0.09  492H :  0.08
  487O :  0.08  508O :  0.08  187O :  0.08  167H :  0.08  361O :  0.08  294H :  0.08  498H :  0.08  497H :  0.08  232O :  0.08  523O :  0.08  125H :  0.07  179H :  0.07
   13 LP   *******   0.01  -1.72942  -3.58501 -13.96316  403O :  3.65  340O :  2.70   55O :  2.48  322O :  2.35  310O :  2.32  208O :  2.21   28O :  2.17  388O :  1.59  268O :  1.59  238O :  1.58  283O :  1.44  406O :  1.42
   31O :  1.41  103O :  1.39  145O :  1.34  235O :  1.34  178O :  1.33  490O :  1.30   64O :  1.30  280O :  1.27  454O :  1.22  433O :  1.14  133O :  1.11  286O :  1.09
  247O :  1.06  199O :  1.01  154O :  0.98  259O :  0.95  115O :  0.95  445O :  0.94    4O :  0.94  439O :  0.93   25O :  0.93  379O :  0.90  430O :  0.90  127O :  0.90
  370O :  0.88  442O :  0.85  394O :  0.83    7O :  0.82  295O :  0.81  121O :  0.81  106O :  0.80  163O :  0.78   43O :  0.77  484O :  0.76   94O :  0.75  385O :  0.74
  217O :  0.73  493O :  0.73  139O :  0.71  100O :  0.71   58O :  0.71  436O :  0.70  241O :  0.70  424O :  0.70  292O :  0.70  421O :  0.69  226O :  0.68  526O :  0.66
  112O :  0.64  427O :  0.63  451O :  0.62  289O :  0.62  412O :  0.61  382O :  0.60  250O :  0.60  352O :  0.59  457O :  0.59  469O :  0.59   19O :  0.57   67O :  0.57
   52O :  0.57   37O :  0.56  184O :  0.55  124O :  0.54  160O :  0.54  205O :  0.53  337O :  0.53  334O :  0.52  505O :  0.51  376O :  0.51   10O :  0.50   49O :  0.48
  514O :  0.47  397O :  0.47  109O :  0.46  172O :  0.46  529O :  0.46  472O :  0.44  142O :  0.44   97O :  0.43  343O :  0.43  481O :  0.42  223O :  0.42  220O :  0.41
   34O :  0.41  373O :  0.40   13O :  0.40   73O :  0.39  148O :  0.39  262O :  0.39  210H :  0.39  277O :  0.39  316O :  0.39  211O :  0.38   61O :  0.37  478O :  0.37
  214O :  0.36  346O :  0.35  130O :  0.35  408H :  0.34  169O :  0.33  520O :  0.33  190O :  0.32   88O :  0.32   76O :  0.32  298O :  0.31  496O :  0.31  202O :  0.30
  253O :  0.29  265O :  0.29  466O :  0.29  181O :  0.29  418O :  0.29  499O :  0.28  328O :  0.28  136O :  0.27  358O :  0.27  244O :  0.27  157O :  0.26  331O :  0.26
  448O :  0.26  196O :  0.25  325O :  0.25   33H :  0.24   82O :  0.23   40O :  0.23  229O :  0.23  304O :  0.23  301O :  0.22  193O :  0.21  355O :  0.21  270H :  0.21
  166O :  0.21  349O :  0.20  364O :  0.19  118O :  0.19  256O :  0.19  475O :  0.19  271O :  0.19  502O :  0.18  391O :  0.18  444H :  0.18   57H :  0.18  201H :  0.17
  511O :  0.17    5H :  0.17  175O :  0.16  381H :  0.16   85O :  0.16  434H :  0.15  324H :  0.15  165H :  0.15  111H :  0.14  307O :  0.14  460O :  0.13  162H :  0.13
  151O :  0.13   75H :  0.13  441H :  0.12   46O :  0.12  530H :  0.12  288H :  0.12   45H :  0.11   30H :  0.11  390H :  0.11   69H :  0.11  249H :  0.11  122H :  0.11
  313O :  0.11   16O :  0.11  274O :  0.10   22O :  0.10  146H :  0.10   26H :  0.10  200H :  0.10  517O :  0.10   44H :  0.09   66H :  0.09  400O :  0.09  372H :  0.09
  341H :  0.09  237H :  0.09    1O :  0.09   95H :  0.09  386H :  0.09  504H :  0.08    8H :  0.08  507H :  0.08   70O :  0.08  515H :  0.08  261H :  0.08  492H :  0.08
  487O :  0.08  508O :  0.08  187O :  0.08  167H :  0.07  361O :  0.07  294H :  0.07  498H :  0.07  497H :  0.07  232O :  0.07  523O :  0.07
   14 LP   *******   0.01 -11.80128  -3.56735  13.10971  283O :  3.46  340O :  2.70   55O :  2.48  310O :  2.31  322O :  2.31  208O :  2.20   28O :  2.17  403O :  1.73  388O :  1.59  268O :  1.59  238O :  1.57  406O :  1.42
   31O :  1.41  103O :  1.38  145O :  1.34  235O :  1.34  178O :  1.33  490O :  1.30   64O :  1.29  280O :  1.27  454O :  1.21  433O :  1.14  133O :  1.10  286O :  1.09
  247O :  1.05  199O :  1.01  154O :  0.98  259O :  0.95  115O :  0.95  445O :  0.94    4O :  0.93  439O :  0.93   25O :  0.93  379O :  0.90  430O :  0.90  127O :  0.90
  370O :  0.88  442O :  0.85  394O :  0.83    7O :  0.82  295O :  0.81  121O :  0.81  106O :  0.80  163O :  0.78   43O :  0.77  484O :  0.76   94O :  0.75  385O :  0.74
  217O :  0.73  493O :  0.73  139O :  0.71  100O :  0.71   58O :  0.70  436O :  0.70  241O :  0.70  424O :  0.70  292O :  0.70  421O :  0.69  226O :  0.68  526O :  0.66
  112O :  0.64  427O :  0.63  289O :  0.62  451O :  0.62  412O :  0.61  352O :  0.60  382O :  0.60  250O :  0.60  457O :  0.59  469O :  0.58   19O :  0.57   52O :  0.57
   67O :  0.57   37O :  0.56  184O :  0.55  124O :  0.54  160O :  0.54  205O :  0.53  337O :  0.53  334O :  0.52  505O :  0.51  376O :  0.50   10O :  0.50   49O :  0.49
  514O :  0.47  397O :  0.47  172O :  0.46  109O :  0.46  529O :  0.45  142O :  0.45  472O :  0.44   97O :  0.43  343O :  0.42  481O :  0.42  223O :  0.42  220O :  0.41
   34O :  0.41  373O :  0.41   13O :  0.40   73O :  0.39  148O :  0.39  262O :  0.39  277O :  0.39  316O :  0.39  210H :  0.39  211O :  0.38   61O :  0.37  478O :  0.37
  346O :  0.35  130O :  0.35  408H :  0.34  214O :  0.34  169O :  0.33  520O :  0.33  190O :  0.32   88O :  0.32   76O :  0.32  298O :  0.31  496O :  0.30  202O :  0.30
  253O :  0.29  265O :  0.29  466O :  0.29  181O :  0.29  418O :  0.28  499O :  0.28  328O :  0.28  136O :  0.27  358O :  0.27  244O :  0.27  157O :  0.26  331O :  0.26
  448O :  0.26  196O :  0.25  325O :  0.25   82O :  0.24   33H :  0.24   40O :  0.23  229O :  0.23  304O :  0.23  301O :  0.22  193O :  0.21  355O :  0.21  270H :  0.21
  166O :  0.21  349O :  0.20  364O :  0.19  118O :  0.19  256O :  0.19  475O :  0.19  271O :  0.19  502O :  0.18  391O :  0.18  444H :  0.18   57H :  0.17  201H :  0.17
  511O :  0.17    5H :  0.17  175O :  0.16  381H :  0.16   85O :  0.16  434H :  0.15  324H :  0.15  165H :  0.15  111H :  0.14  307O :  0.14  460O :  0.13  162H :  0.13
  151O :  0.13   75H :  0.13  441H :  0.12   46O :  0.12  530H :  0.12  288H :  0.12   45H :  0.11  313O :  0.11   30H :  0.11  390H :  0.11   69H :  0.11  249H :  0.11
  122H :  0.11   16O :  0.11  274O :  0.10   22O :  0.10  146H :  0.10   66H :  0.10   26H :  0.10  200H :  0.10  517O :  0.10   44H :  0.09  400O :  0.09  372H :  0.09
  341H :  0.09  237H :  0.09    1O :  0.09   95H :  0.09  386H :  0.09  504H :  0.09    8H :  0.08  507H :  0.08   70O :  0.08  515H :  0.08  261H :  0.08  492H :  0.08
  487O :  0.08  508O :  0.08  187O :  0.08  167H :  0.07  361O :  0.07  294H :  0.07  498H :  0.07  497H :  0.07  232O :  0.07  523O :  0.07
   15 LP   *******   0.01   8.88326   0.70729  -8.33424  238O :  3.41  340O :  2.63   55O :  2.41  322O :  2.28  310O :  2.26  208O :  2.15   28O :  2.11  403O :  1.68  388O :  1.55  268O :  1.55  283O :  1.41  406O :  1.39
   31O :  1.37  103O :  1.35  145O :  1.31  235O :  1.30  178O :  1.30   64O :  1.27  490O :  1.27  280O :  1.24  454O :  1.18  433O :  1.11  133O :  1.08  286O :  1.06
  247O :  1.03  199O :  0.98  154O :  0.95  259O :  0.93  445O :  0.92    4O :  0.91  439O :  0.91   25O :  0.90  115O :  0.90  379O :  0.88  430O :  0.88  127O :  0.87
  370O :  0.85  442O :  0.83  394O :  0.81    7O :  0.80  295O :  0.79  121O :  0.79  106O :  0.78  163O :  0.76   43O :  0.75   94O :  0.73  484O :  0.73  385O :  0.72
  217O :  0.71  493O :  0.71  139O :  0.69  100O :  0.69   58O :  0.69  436O :  0.68  241O :  0.68  424O :  0.68  292O :  0.68  421O :  0.67  226O :  0.66  526O :  0.64
  112O :  0.62  427O :  0.62  289O :  0.61  451O :  0.61  412O :  0.59  352O :  0.59  382O :  0.59  250O :  0.59  457O :  0.57  469O :  0.57   19O :  0.55   52O :  0.55
   67O :  0.55   37O :  0.54  184O :  0.53  124O :  0.52  160O :  0.52  205O :  0.52  337O :  0.51  334O :  0.51  505O :  0.50  376O :  0.49   10O :  0.49   49O :  0.47
  514O :  0.46  397O :  0.45  172O :  0.45  109O :  0.45  529O :  0.44  472O :  0.43  142O :  0.43   97O :  0.42  343O :  0.41  481O :  0.41  223O :  0.41  220O :  0.40
   34O :  0.40  373O :  0.39   13O :  0.39   73O :  0.38  148O :  0.38  262O :  0.38  210H :  0.38  277O :  0.38  316O :  0.38   61O :  0.36  478O :  0.36  214O :  0.35
  346O :  0.34  211O :  0.34  130O :  0.34  408H :  0.33  169O :  0.32  520O :  0.32  190O :  0.31   88O :  0.31  298O :  0.30  496O :  0.30  202O :  0.29   76O :  0.29
  253O :  0.29  265O :  0.28  466O :  0.28  181O :  0.28  418O :  0.28  499O :  0.28  328O :  0.28  136O :  0.27  358O :  0.27  244O :  0.26  157O :  0.26  331O :  0.26
  448O :  0.25  196O :  0.25  325O :  0.24   82O :  0.24   33H :  0.23   40O :  0.22  229O :  0.22  304O :  0.22  301O :  0.21  193O :  0.20  355O :  0.20  270H :  0.20
  166O :  0.20  349O :  0.20  364O :  0.18  118O :  0.18  256O :  0.18  475O :  0.18  271O :  0.18  502O :  0.18  391O :  0.18  444H :  0.17   57H :  0.17  201H :  0.17
  511O :  0.16    5H :  0.16  175O :  0.16  381H :  0.16   85O :  0.15  434H :  0.15  324H :  0.15  165H :  0.15  111H :  0.14  307O :  0.13  460O :  0.13  162H :  0.13
  151O :  0.12   75H :  0.12  441H :  0.12   46O :  0.12  530H :  0.11  288H :  0.11   45H :  0.11   30H :  0.11  390H :  0.11   69H :  0.11  249H :  0.11  122H :  0.11
  313O :  0.10   16O :  0.10  274O :  0.10   22O :  0.10  146H :  0.10   66H :  0.10   26H :  0.10  200H :  0.09  517O :  0.09   44H :  0.09  400O :  0.09  372H :  0.09
  341H :  0.09  237H :  0.09    1O :  0.08   95H :  0.08  386H :  0.08    8H :  0.08  504H :  0.08  507H :  0.08   70O :  0.08  515H :  0.08  261H :  0.08  492H :  0.08
  487O :  0.08  508O :  0.07  187O :  0.07  167H :  0.07  361O :  0.07  294H :  0.07  498H :  0.07
   16 LP   *******   0.01   1.99201   5.22287  -7.61410  133O :  2.80  340O :  2.63   55O :  2.42  322O :  2.28  310O :  2.26  208O :  2.15   28O :  2.11  403O :  1.68  388O :  1.55  268O :  1.54  238O :  1.54  283O :  1.41
  406O :  1.39  103O :  1.35   31O :  1.35  145O :  1.31  235O :  1.30  178O :  1.30  490O :  1.26   64O :  1.26  280O :  1.24  454O :  1.18  433O :  1.11  286O :  1.06
  247O :  1.03  199O :  0.98  154O :  0.95  259O :  0.93  115O :  0.92  445O :  0.92    4O :  0.91  439O :  0.91   25O :  0.90  379O :  0.88  127O :  0.87  370O :  0.85
  430O :  0.85  442O :  0.84  394O :  0.81    7O :  0.79  295O :  0.79  121O :  0.79  106O :  0.78  163O :  0.76   43O :  0.75  484O :  0.74   94O :  0.73  385O :  0.72
  217O :  0.71  493O :  0.71  139O :  0.69  100O :  0.69   58O :  0.69  436O :  0.68  241O :  0.68  424O :  0.68  292O :  0.68  421O :  0.67  226O :  0.66  526O :  0.64
  112O :  0.62  427O :  0.62  289O :  0.61  451O :  0.61  412O :  0.59  352O :  0.59  382O :  0.59  250O :  0.59  457O :  0.57  469O :  0.57   19O :  0.55   52O :  0.55
   67O :  0.55   37O :  0.55  184O :  0.53  124O :  0.52  160O :  0.52  205O :  0.52  337O :  0.51  334O :  0.51  505O :  0.50  376O :  0.49   10O :  0.49   49O :  0.48
  514O :  0.46  397O :  0.45  172O :  0.45  109O :  0.45  529O :  0.44  472O :  0.43  142O :  0.43   97O :  0.42  343O :  0.42  481O :  0.41  223O :  0.41  220O :  0.40
   34O :  0.40  373O :  0.39   13O :  0.39  148O :  0.38   73O :  0.38  262O :  0.38  210H :  0.38  277O :  0.38  316O :  0.38  211O :  0.37   61O :  0.36  478O :  0.36
  214O :  0.35  346O :  0.34  130O :  0.34  408H :  0.33  169O :  0.32  520O :  0.32   76O :  0.32  190O :  0.31   88O :  0.31  298O :  0.30  496O :  0.30  202O :  0.29
  253O :  0.29  265O :  0.28  466O :  0.28  181O :  0.28  418O :  0.28  499O :  0.28  328O :  0.28  136O :  0.27  358O :  0.26  244O :  0.26  157O :  0.26  331O :  0.26
  448O :  0.25  196O :  0.25  325O :  0.24   82O :  0.24   33H :  0.23   40O :  0.22  229O :  0.22  304O :  0.22  301O :  0.21  193O :  0.20  355O :  0.20  270H :  0.20
  166O :  0.20  349O :  0.20  444H :  0.19  364O :  0.18  475O :  0.18  256O :  0.18  271O :  0.18  118O :  0.18  502O :  0.18  391O :  0.18   57H :  0.17  201H :  0.17
  511O :  0.16    5H :  0.16  175O :  0.16  381H :  0.16   85O :  0.15  434H :  0.15  324H :  0.15  165H :  0.15  111H :  0.14  307O :  0.13  460O :  0.13  162H :  0.13
  151O :  0.12   75H :  0.12   46O :  0.12  441H :  0.12  530H :  0.11  288H :  0.11   45H :  0.11   30H :  0.11  390H :  0.11   69H :  0.11  249H :  0.11  122H :  0.11
  313O :  0.10   16O :  0.10  274O :  0.10   22O :  0.10  146H :  0.10   26H :  0.10   66H :  0.10  200H :  0.09  517O :  0.09   44H :  0.09  400O :  0.09  372H :  0.09
  341H :  0.09  386H :  0.09  237H :  0.09    1O :  0.09   95H :  0.08  504H :  0.08    8H :  0.08  507H :  0.08   70O :  0.08  515H :  0.08  261H :  0.08  492H :  0.08
  487O :  0.08  508O :  0.07  187O :  0.07  167H :  0.07  361O :  0.07  294H :  0.07  498H :  0.07
   17 LP   *******   0.01 -16.26205 -10.81508  -0.93458  286O :  3.10  340O :  2.53   55O :  2.33  322O :  2.20  310O :  2.17  208O :  2.07   28O :  2.04  403O :  1.62  388O :  1.49  268O :  1.49  238O :  1.48  283O :  1.35
  406O :  1.34   31O :  1.32  103O :  1.30  145O :  1.26  235O :  1.26  178O :  1.25  490O :  1.22   64O :  1.21  280O :  1.19  454O :  1.14  433O :  1.07  133O :  1.04
  247O :  0.99  199O :  0.94  154O :  0.92  259O :  0.89  115O :  0.89  445O :  0.89    4O :  0.88  439O :  0.88   25O :  0.87  379O :  0.85  430O :  0.84  127O :  0.84
  370O :  0.82  442O :  0.80  394O :  0.78    7O :  0.77  295O :  0.76  121O :  0.76  106O :  0.75  163O :  0.73   43O :  0.72  484O :  0.71   94O :  0.70  385O :  0.70
  217O :  0.68  493O :  0.68  139O :  0.67  100O :  0.66   58O :  0.66  436O :  0.66  241O :  0.66  424O :  0.65  292O :  0.65  421O :  0.65  226O :  0.64  526O :  0.62
  112O :  0.60  427O :  0.60  289O :  0.59  451O :  0.59  412O :  0.57  352O :  0.57  382O :  0.57  250O :  0.57  457O :  0.55  469O :  0.55   19O :  0.53   67O :  0.53
   52O :  0.53   37O :  0.52  184O :  0.52  124O :  0.50  160O :  0.50  205O :  0.50  337O :  0.49  334O :  0.49  505O :  0.48  376O :  0.47   10O :  0.47   49O :  0.46
  514O :  0.44  397O :  0.44  172O :  0.44  109O :  0.43  529O :  0.43  472O :  0.42  142O :  0.41   97O :  0.40  343O :  0.40  481O :  0.40  223O :  0.39  220O :  0.39
   34O :  0.38  373O :  0.38   13O :  0.38   73O :  0.37  148O :  0.37  262O :  0.37  210H :  0.37  277O :  0.37  316O :  0.36  211O :  0.36   61O :  0.35  478O :  0.34
  214O :  0.33  346O :  0.33  130O :  0.33  408H :  0.32  169O :  0.31  520O :  0.31  190O :  0.30   88O :  0.30   76O :  0.30  496O :  0.29  298O :  0.28  202O :  0.28
  253O :  0.27  265O :  0.27  466O :  0.27  181O :  0.27  418O :  0.27  499O :  0.27  328O :  0.27  136O :  0.26  358O :  0.25  244O :  0.25  157O :  0.25  331O :  0.25
  448O :  0.24  196O :  0.24  325O :  0.24   82O :  0.23   33H :  0.22   40O :  0.22  229O :  0.21  304O :  0.21  301O :  0.21  193O :  0.19  270H :  0.19  355O :  0.19
  166O :  0.19  349O :  0.19  364O :  0.18  118O :  0.18  256O :  0.17  475O :  0.17  271O :  0.17  502O :  0.17  391O :  0.17  444H :  0.17   57H :  0.16  201H :  0.16
  511O :  0.16    5H :  0.16  175O :  0.15  381H :  0.15   85O :  0.15  434H :  0.14  324H :  0.14  165H :  0.14  307O :  0.14  111H :  0.13  460O :  0.12  162H :  0.12
  151O :  0.12   75H :  0.12  441H :  0.11   46O :  0.11  530H :  0.11   45H :  0.11   30H :  0.11  390H :  0.11   69H :  0.10  249H :  0.10  122H :  0.10  313O :  0.10
   16O :  0.10  274O :  0.10   22O :  0.10  288H :  0.09  146H :  0.09   66H :  0.09   26H :  0.09  200H :  0.09  517O :  0.09   44H :  0.09  400O :  0.09  372H :  0.08
  341H :  0.08  237H :  0.08    1O :  0.08  386H :  0.08  504H :  0.08    8H :  0.08  507H :  0.08  508O :  0.08   70O :  0.08  515H :  0.07  261H :  0.07  492H :  0.07
  487O :  0.07  187O :  0.07
   18 LP   *******   0.01 -16.24830   3.60900  -2.09971  433O :  3.14  340O :  2.53   55O :  2.32  322O :  2.20  310O :  2.17  208O :  2.07   28O :  2.03  403O :  1.62  388O :  1.49  268O :  1.49  238O :  1.48  283O :  1.35
  406O :  1.33   31O :  1.32  103O :  1.30  145O :  1.26  235O :  1.26  178O :  1.25  490O :  1.22   64O :  1.21  280O :  1.19  454O :  1.14  133O :  1.04  286O :  1.02
  247O :  0.99  199O :  0.94  154O :  0.92  259O :  0.89  115O :  0.89  445O :  0.88    4O :  0.88  439O :  0.88   25O :  0.87  379O :  0.85  430O :  0.84  127O :  0.84
  370O :  0.82  442O :  0.80  394O :  0.78    7O :  0.77  295O :  0.76  121O :  0.76  106O :  0.75  163O :  0.73   43O :  0.72  484O :  0.71   94O :  0.70  385O :  0.70
  217O :  0.68  493O :  0.68  139O :  0.67  100O :  0.66   58O :  0.66  436O :  0.66  241O :  0.66  424O :  0.65  292O :  0.65  421O :  0.65  226O :  0.64  526O :  0.62
  112O :  0.60  427O :  0.60  289O :  0.59  451O :  0.59  250O :  0.57  352O :  0.57  382O :  0.57  412O :  0.56  457O :  0.55  469O :  0.55   19O :  0.53   52O :  0.53
   67O :  0.53   37O :  0.52  184O :  0.51  124O :  0.50  160O :  0.50  205O :  0.50  337O :  0.49  334O :  0.49  505O :  0.48  376O :  0.48   10O :  0.47   49O :  0.46
  514O :  0.44  397O :  0.44  172O :  0.44  109O :  0.43  529O :  0.43  472O :  0.42  142O :  0.41   97O :  0.40  343O :  0.40  481O :  0.40  223O :  0.39  220O :  0.39
   34O :  0.38  373O :  0.38   13O :  0.37   73O :  0.37  148O :  0.37  262O :  0.37  210H :  0.37  277O :  0.37  316O :  0.36  211O :  0.36   61O :  0.35  478O :  0.34
  214O :  0.33  346O :  0.33  130O :  0.33  408H :  0.32  169O :  0.31  520O :  0.31  190O :  0.30   88O :  0.30   76O :  0.30  298O :  0.29  496O :  0.29  202O :  0.28
  253O :  0.28  265O :  0.27  466O :  0.27  181O :  0.27  418O :  0.27  499O :  0.27  328O :  0.27  136O :  0.26  358O :  0.25  244O :  0.25  331O :  0.25  448O :  0.24
  196O :  0.24  325O :  0.24   82O :  0.23  157O :  0.22   33H :  0.22   40O :  0.21  229O :  0.21  304O :  0.21  301O :  0.20  193O :  0.19  355O :  0.19  270H :  0.19
  166O :  0.19  349O :  0.19  364O :  0.18  118O :  0.18  256O :  0.17  475O :  0.17  271O :  0.17  502O :  0.17  391O :  0.17  444H :  0.17   57H :  0.16  201H :  0.16
  511O :  0.16    5H :  0.16  175O :  0.15  381H :  0.15   85O :  0.15  324H :  0.14  165H :  0.14  111H :  0.13  307O :  0.13  434H :  0.12  460O :  0.12  162H :  0.12
  151O :  0.12   75H :  0.12  441H :  0.11   46O :  0.11  530H :  0.11  288H :  0.11   45H :  0.11   30H :  0.11  390H :  0.11   69H :  0.10  249H :  0.10  122H :  0.10
  313O :  0.10   16O :  0.10  274O :  0.10   22O :  0.10  146H :  0.09   66H :  0.09   26H :  0.09  200H :  0.09  517O :  0.09   44H :  0.09  400O :  0.09  372H :  0.08
  341H :  0.08  237H :  0.08    1O :  0.08   95H :  0.08  386H :  0.08  504H :  0.08    8H :  0.08  507H :  0.08   70O :  0.08  515H :  0.07  261H :  0.07  492H :  0.07
  487O :  0.07  508O :  0.07  187O :  0.07
   19 LP   *******   0.01   4.80384  -1.31606 -10.49997   64O :  2.82  340O :  2.52   55O :  2.31  322O :  2.19  310O :  2.16  208O :  2.06   28O :  2.03  403O :  1.62  388O :  1.48  268O :  1.48  238O :  1.47  283O :  1.35
  406O :  1.33   31O :  1.31  103O :  1.29  145O :  1.25  235O :  1.25  178O :  1.25  490O :  1.21  280O :  1.19  454O :  1.14  433O :  1.06  133O :  1.03  286O :  1.02
  247O :  0.99  199O :  0.94  154O :  0.91  259O :  0.89  115O :  0.88  445O :  0.88    4O :  0.87  439O :  0.87   25O :  0.87  379O :  0.84  127O :  0.84  370O :  0.82
  430O :  0.82  442O :  0.79  394O :  0.78    7O :  0.77  295O :  0.76  121O :  0.76  106O :  0.75  163O :  0.73   43O :  0.72  484O :  0.71   94O :  0.70  385O :  0.69
  493O :  0.68  217O :  0.68  139O :  0.66  100O :  0.66   58O :  0.66  436O :  0.66  241O :  0.66  424O :  0.65  292O :  0.65  421O :  0.65  226O :  0.63  526O :  0.62
  427O :  0.60  112O :  0.60  289O :  0.58  451O :  0.58  412O :  0.57  352O :  0.57  382O :  0.56  250O :  0.56  457O :  0.55  469O :  0.55   52O :  0.53   19O :  0.53
   67O :  0.53   37O :  0.52  184O :  0.51  124O :  0.50  160O :  0.50  205O :  0.50  337O :  0.49  334O :  0.49  505O :  0.48  376O :  0.47   10O :  0.47   49O :  0.46
  514O :  0.44  397O :  0.44  172O :  0.43  109O :  0.43  529O :  0.43  472O :  0.41  142O :  0.41   97O :  0.40  343O :  0.40  481O :  0.39  223O :  0.39   34O :  0.38
  373O :  0.38   13O :  0.37   73O :  0.37  148O :  0.37  262O :  0.36  210H :  0.36  277O :  0.36  316O :  0.36  211O :  0.36  220O :  0.35   61O :  0.35  478O :  0.34
  214O :  0.33  346O :  0.33  130O :  0.33  408H :  0.31  169O :  0.31  520O :  0.30  190O :  0.30   88O :  0.30   76O :  0.29  298O :  0.29  496O :  0.28  202O :  0.28
  253O :  0.27  265O :  0.27  466O :  0.27  181O :  0.27  418O :  0.27  499O :  0.26  328O :  0.26  136O :  0.26  358O :  0.25  244O :  0.25  157O :  0.25  331O :  0.25
  448O :  0.24  196O :  0.24  325O :  0.23   82O :  0.23   33H :  0.22   40O :  0.21  229O :  0.21  304O :  0.21  301O :  0.20  193O :  0.19  355O :  0.19  270H :  0.19
  166O :  0.19  349O :  0.19  364O :  0.18  256O :  0.17  118O :  0.17  475O :  0.17  271O :  0.17  502O :  0.17  391O :  0.17  444H :  0.17   57H :  0.16  201H :  0.16
  511O :  0.16    5H :  0.16  175O :  0.15  381H :  0.15   85O :  0.15  434H :  0.14  324H :  0.14  165H :  0.14  111H :  0.13  307O :  0.13  460O :  0.12  162H :  0.12
  151O :  0.12   75H :  0.12  441H :  0.11   46O :  0.11  530H :  0.11  288H :  0.11   30H :  0.11   45H :  0.11  390H :  0.11   69H :  0.10  249H :  0.10  122H :  0.10
  313O :  0.10   16O :  0.10  274O :  0.09   22O :  0.09  146H :  0.09   26H :  0.09  200H :  0.09  517O :  0.09   44H :  0.09  400O :  0.09  372H :  0.08  341H :  0.08
  237H :  0.08   95H :  0.08    1O :  0.08  386H :  0.08  222H :  0.08    8H :  0.08  504H :  0.08  507H :  0.08   70O :  0.08  515H :  0.07  261H :  0.07   66H :  0.07
  492H :  0.07  487O :  0.07  508O :  0.07  187O :  0.07
   20 LP   *******   0.01   3.51529  -5.44885   4.77033  103O :  2.65  340O :  2.39   55O :  2.19  322O :  2.07  310O :  2.05  208O :  1.95   28O :  1.91  403O :  1.53  388O :  1.40  268O :  1.40  238O :  1.39  283O :  1.27
  406O :  1.26   31O :  1.25  235O :  1.20  145O :  1.18  178O :  1.18  490O :  1.15   64O :  1.14  280O :  1.12  454O :  1.07  433O :  1.01  133O :  0.98  286O :  0.96
  247O :  0.91  199O :  0.89  154O :  0.86  259O :  0.84  115O :  0.84    4O :  0.83  439O :  0.82   25O :  0.82  445O :  0.81  379O :  0.80  430O :  0.79  127O :  0.79
  370O :  0.77  442O :  0.75  394O :  0.74    7O :  0.72  295O :  0.72  121O :  0.72  106O :  0.71  163O :  0.69   43O :  0.68  484O :  0.67   94O :  0.66  385O :  0.66
  217O :  0.64  493O :  0.64  139O :  0.63  100O :  0.63  241O :  0.62  436O :  0.62  424O :  0.62  292O :  0.62  421O :  0.61   58O :  0.60  226O :  0.60  526O :  0.58
  112O :  0.56  427O :  0.56  289O :  0.55  451O :  0.55  412O :  0.54  352O :  0.53  382O :  0.53  250O :  0.53  457O :  0.52  469O :  0.52   19O :  0.50   52O :  0.50
   67O :  0.50   37O :  0.49  184O :  0.48  160O :  0.47  124O :  0.47  205O :  0.47  337O :  0.46  334O :  0.46  505O :  0.45  376O :  0.45   10O :  0.44   49O :  0.43
  514O :  0.42  397O :  0.41  172O :  0.41  109O :  0.41  529O :  0.40  472O :  0.39  142O :  0.39   97O :  0.38  343O :  0.38  481O :  0.37  223O :  0.37  220O :  0.36
   34O :  0.36  373O :  0.36   13O :  0.35   73O :  0.35  148O :  0.35  277O :  0.34  262O :  0.34  210H :  0.34  316O :  0.34  211O :  0.34   61O :  0.33  478O :  0.32
  214O :  0.31  346O :  0.31  130O :  0.31  408H :  0.30  169O :  0.29  520O :  0.29  190O :  0.28   88O :  0.28   76O :  0.28  298O :  0.27  496O :  0.27  202O :  0.27
  253O :  0.26  265O :  0.26  466O :  0.26  181O :  0.25  418O :  0.25  328O :  0.25  499O :  0.25  136O :  0.24  358O :  0.24  244O :  0.23  157O :  0.23  331O :  0.23
  448O :  0.23  196O :  0.22  325O :  0.22   82O :  0.21   33H :  0.21   40O :  0.20  229O :  0.20  304O :  0.20  301O :  0.19  193O :  0.18  355O :  0.18  270H :  0.18
  166O :  0.18  349O :  0.18  364O :  0.17  118O :  0.17  256O :  0.16  475O :  0.16  271O :  0.16   57H :  0.16  502O :  0.16  391O :  0.16  444H :  0.16  201H :  0.15
  511O :  0.15    5H :  0.15  175O :  0.14  381H :  0.14   85O :  0.14  434H :  0.14  324H :  0.14  165H :  0.13  111H :  0.12  307O :  0.12  460O :  0.12  162H :  0.12
  151O :  0.11   75H :  0.11  441H :  0.11   46O :  0.11  530H :  0.10  288H :  0.10   45H :  0.10   30H :  0.10  390H :  0.10  249H :  0.10   69H :  0.10  122H :  0.10
  313O :  0.10   16O :  0.09   22O :  0.09  274O :  0.09  146H :  0.09   66H :  0.09   26H :  0.09  200H :  0.09  517O :  0.08   44H :  0.08  400O :  0.08  372H :  0.08
  341H :  0.08  237H :  0.08    1O :  0.08   95H :  0.08  386H :  0.08  504H :  0.07    8H :  0.07  507H :  0.07   70O :  0.07  515H :  0.07  261H :  0.07
   21 LP   *******   0.01   1.17309   5.98403  11.00237  388O :  3.13  340O :  2.32   55O :  2.12  322O :  2.01  310O :  1.99  208O :  1.89   28O :  1.88  403O :  1.48  268O :  1.36  238O :  1.35  283O :  1.24  406O :  1.22
   31O :  1.21  103O :  1.19  145O :  1.15  178O :  1.14  235O :  1.14  490O :  1.11   64O :  1.11  280O :  1.09  454O :  1.04  433O :  0.98  133O :  0.95  286O :  0.94
  247O :  0.90  199O :  0.86  154O :  0.84  259O :  0.81  115O :  0.81  445O :  0.81    4O :  0.80  439O :  0.80   25O :  0.79  379O :  0.77  430O :  0.77  127O :  0.77
  370O :  0.75  442O :  0.73  394O :  0.71    7O :  0.70  295O :  0.70  121O :  0.70  106O :  0.69  163O :  0.67   43O :  0.66  484O :  0.65   94O :  0.64  385O :  0.64
  217O :  0.62  493O :  0.62  139O :  0.61  100O :  0.61   58O :  0.60  436O :  0.60  424O :  0.60  292O :  0.60  421O :  0.59  241O :  0.58  226O :  0.58  526O :  0.57
  112O :  0.55  427O :  0.55  289O :  0.54  451O :  0.53  412O :  0.52  382O :  0.52  352O :  0.52  250O :  0.52  457O :  0.51  469O :  0.50   19O :  0.49   52O :  0.49
   67O :  0.49   37O :  0.48  184O :  0.47  124O :  0.46  160O :  0.46  205O :  0.46  337O :  0.45  334O :  0.45  505O :  0.44  376O :  0.43   10O :  0.43   49O :  0.42
  514O :  0.40  397O :  0.40  172O :  0.40  109O :  0.39  529O :  0.39  472O :  0.38  142O :  0.38   97O :  0.37  343O :  0.36  481O :  0.36  223O :  0.36  220O :  0.35
   34O :  0.35  373O :  0.35   13O :  0.34   73O :  0.34  148O :  0.34  262O :  0.33  277O :  0.33  210H :  0.33  316O :  0.33  211O :  0.33   61O :  0.32  478O :  0.31
  214O :  0.31  346O :  0.30  130O :  0.30  408H :  0.29  169O :  0.28  520O :  0.28  190O :  0.28   88O :  0.27   76O :  0.27  298O :  0.26  496O :  0.26  202O :  0.26
  253O :  0.25  265O :  0.25  466O :  0.25  181O :  0.25  418O :  0.24  499O :  0.24  328O :  0.24  136O :  0.23  358O :  0.23  244O :  0.23  157O :  0.23  331O :  0.23
  448O :  0.22  196O :  0.22  325O :  0.22   82O :  0.21   33H :  0.20   40O :  0.20  229O :  0.20  304O :  0.19  301O :  0.19  193O :  0.18  355O :  0.18  270H :  0.18
  166O :  0.18  349O :  0.18  364O :  0.16  118O :  0.16  256O :  0.16  475O :  0.16  271O :  0.16  502O :  0.16  391O :  0.15  444H :  0.15   57H :  0.15  201H :  0.15
  511O :  0.14    5H :  0.14  175O :  0.14  381H :  0.14   85O :  0.13  434H :  0.13  324H :  0.13  165H :  0.13  111H :  0.12  307O :  0.12  460O :  0.11  162H :  0.11
[...]
   145   8 o    1.879 --   146 h    0.853   147 h    0.811
   146   1 h    0.892 --   145 o    0.853
   147   1 h    0.887 --   145 o    0.811
   148   8 o    1.846 --   150 h    0.918   149 h    0.801
   149   1 h    0.880 --   148 o    0.801
   150   1 h    0.923 --   148 o    0.918
   151   8 o    1.885 --   152 h    0.830   153 h    0.817
   152   1 h    0.887 --   151 o    0.830
   153   1 h    0.883 --   151 o    0.817
   154   8 o    1.843 --   155 h    0.922   156 h    0.822
   155   1 h    0.924 --   154 o    0.922
   156   1 h    0.884 --   154 o    0.822
   157   8 o    1.897 --   158 h    0.824   159 h    0.803
   158   1 h    0.887 --   157 o    0.824
   159   1 h    0.878 --   157 o    0.803
   160   8 o    1.848 --   161 h    0.821   162 h    0.788
   161   1 h    0.886 --   160 o    0.821
   162   1 h    0.874 --   160 o    0.788
   163   8 o    1.821 --   164 h    0.892   165 h    0.829
   164   1 h    0.908 --   163 o    0.892
   165   1 h    0.885 --   163 o    0.829
   166   8 o    1.869 --   167 h    0.870   168 h    0.812
   167   1 h    0.902 --   166 o    0.870
   168   1 h    0.880 --   166 o    0.812
   169   8 o    1.832 --   170 h    0.912   171 h    0.815
   170   1 h    0.918 --   169 o    0.912
   171   1 h    0.873 --   169 o    0.815
   172   8 o    1.802 --   173 h    0.892   174 h    0.851
   173   1 h    0.911 --   172 o    0.892
   174   1 h    0.890 --   172 o    0.851
   175   8 o    1.862 --   176 h    0.855   177 h    0.854
   176   1 h    0.896 --   175 o    0.855
   177   1 h    0.895 --   175 o    0.854
   178   8 o    1.866 --   179 h    0.833   180 h    0.811
   179   1 h    0.889 --   178 o    0.833
   180   1 h    0.873 --   178 o    0.811
   181   8 o    1.896 --   182 h    0.821   183 h    0.798
   182   1 h    0.875 --   181 o    0.821
   183   1 h    0.876 --   181 o    0.798
   184   8 o    1.834 --   186 h    0.880   185 h    0.848
   185   1 h    0.890 --   184 o    0.848
   186   1 h    0.904 --   184 o    0.880
   187   8 o    1.889 --   189 h    0.851   188 h    0.816
   188   1 h    0.882 --   187 o    0.816
   189   1 h    0.889 --   187 o    0.851
   190   8 o    1.835 --   191 h    0.827   192 h    0.795
   191   1 h    0.878 --   190 o    0.827
   192   1 h    0.884 --   190 o    0.795
   193   8 o    1.873 --   194 h    0.850   195 h    0.784
   194   1 h    0.884 --   193 o    0.850
   195   1 h    0.869 --   193 o    0.784
   196   8 o    1.859 --   197 h    0.912   198 h    0.821
   197   1 h    0.919 --   196 o    0.912
   198   1 h    0.877 --   196 o    0.821
   199   8 o    1.835 --   201 h    0.825   200 h    0.793
   200   1 h    0.872 --   199 o    0.793
   201   1 h    0.897 --   199 o    0.825
   202   8 o    1.846 --   204 h    0.832   203 h    0.831
   203   1 h    0.886 --   202 o    0.831
   204   1 h    0.887 --   202 o    0.832
   205   8 o    1.857 --   206 h    0.858   207 h    0.828
   206   1 h    0.899 --   205 o    0.858
   207   1 h    0.884 --   205 o    0.828
   208   8 o    1.865 --   210 h    0.842   209 h    0.837
   209   1 h    0.876 --   208 o    0.837
   210   1 h    0.890 --   208 o    0.842
   211   8 o    1.886 --   212 h    0.820   213 h    0.813
   212   1 h    0.887 --   211 o    0.820
   213   1 h    0.879 --   211 o    0.813
   214   8 o    1.851 --   216 h    0.864   215 h    0.808
   215   1 h    0.876 --   214 o    0.808
   216   1 h    0.898 --   214 o    0.864
   217   8 o    1.882 --   218 h    0.819   219 h    0.796
   218   1 h    0.871 --   217 o    0.819
   219   1 h    0.878 --   217 o    0.796
   220   8 o    1.854 --   221 h    0.886   222 h    0.773
   221   1 h    0.905 --   220 o    0.886
   222   1 h    0.873 --   220 o    0.773
   223   8 o    1.872 --   225 h    0.857   224 h    0.809
   224   1 h    0.877 --   223 o    0.809
   225   1 h    0.893 --   223 o    0.857
   226   8 o    1.872 --   228 h    0.845   227 h    0.792
   227   1 h    0.875 --   226 o    0.792
   228   1 h    0.895 --   226 o    0.845
   229   8 o    1.815 --   231 h    0.861   230 h    0.823
   230   1 h    0.890 --   229 o    0.823
   231   1 h    0.900 --   229 o    0.861
   232   8 o    1.862 --   234 h    0.866   233 h    0.804
   233   1 h    0.881 --   232 o    0.804
   234   1 h    0.899 --   232 o    0.866
   235   8 o    1.867 --   237 h    0.816   236 h    0.816
   236   1 h    0.874 --   235 o    0.816
   237   1 h    0.882 --   235 o    0.816
   238   8 o    1.869 --   239 h    0.806   240 h    0.785
   239   1 h    0.882 --   238 o    0.806
   240   1 h    0.870 --   238 o    0.785
   241   8 o    1.854 --   243 h    0.849   242 h    0.831
   242   1 h    0.889 --   241 o    0.831
   243   1 h    0.895 --   241 o    0.849
   244   8 o    1.840 --   245 h    0.842   246 h    0.837
   245   1 h    0.892 --   244 o    0.842
   246   1 h    0.894 --   244 o    0.837
   247   8 o    1.848 --   249 h    0.829   248 h    0.817
   248   1 h    0.876 --   247 o    0.817
   249   1 h    0.884 --   247 o    0.829
   250   8 o    1.877 --   251 h    0.848   252 h    0.811
   251   1 h    0.889 --   250 o    0.848
   252   1 h    0.874 --   250 o    0.811
   253   8 o    1.873 --   254 h    0.880   255 h    0.831
   254   1 h    0.901 --   253 o    0.880
   255   1 h    0.889 --   253 o    0.831
   256   8 o    1.826 --   257 h    0.860   258 h    0.832
   257   1 h    0.893 --   256 o    0.860
   258   1 h    0.895 --   256 o    0.832
   259   8 o    1.843 --   261 h    0.848   260 h    0.822
   260   1 h    0.886 --   259 o    0.822
   261   1 h    0.892 --   259 o    0.848
   262   8 o    1.834 --   263 h    0.917   264 h    0.786
   263   1 h    0.922 --   262 o    0.917
   264   1 h    0.878 --   262 o    0.786
   265   8 o    1.808 --   266 h    0.850   267 h    0.827
   266   1 h    0.894 --   265 o    0.850
   267   1 h    0.891 --   265 o    0.827
   268   8 o    1.826 --   269 h    0.857   270 h    0.847
   269   1 h    0.896 --   268 o    0.857
   270   1 h    0.888 --   268 o    0.847
   271   8 o    1.837 --   272 h    0.861   273 h    0.859
   272   1 h    0.894 --   271 o    0.861
   273   1 h    0.896 --   271 o    0.859
   274   8 o    1.828 --   275 h    0.841   276 h    0.833
   275   1 h    0.896 --   274 o    0.841
   276   1 h    0.890 --   274 o    0.833
   277   8 o    1.854 --   279 h    0.860   278 h    0.813
   278   1 h    0.876 --   277 o    0.813
   279   1 h    0.901 --   277 o    0.860
   280   8 o    1.864 --   282 h    0.861   281 h    0.831
   281   1 h    0.886 --   280 o    0.831
   282   1 h    0.897 --   280 o    0.861
   283   8 o    1.836 --   285 h    0.885   284 h    0.815
   284   1 h    0.883 --   283 o    0.815
   285   1 h    0.910 --   283 o    0.885
   286   8 o    1.847 --   288 h    0.866   287 h    0.833
   287   1 h    0.885 --   286 o    0.833
   288   1 h    0.897 --   286 o    0.866
   289   8 o    1.873 --   291 h    0.898   290 h    0.791
   290   1 h    0.879 --   289 o    0.791
   291   1 h    0.910 --   289 o    0.898
   292   8 o    1.864 --   293 h    0.851   294 h    0.813
   293   1 h    0.888 --   292 o    0.851
   294   1 h    0.885 --   292 o    0.813
   295   8 o    1.871 --   297 h    0.826   296 h    0.805
   296   1 h    0.885 --   295 o    0.805
   297   1 h    0.882 --   295 o    0.826
   298   8 o    1.827 --   299 h    0.855   300 h    0.816
   299   1 h    0.897 --   298 o    0.855
   300   1 h    0.884 --   298 o    0.816
   301   8 o    1.863 --   302 h    0.867   303 h    0.848
   302   1 h    0.893 --   301 o    0.867
   303   1 h    0.888 --   301 o    0.848
   304   8 o    1.841 --   305 h    0.912   306 h    0.814
   305   1 h    0.920 --   304 o    0.912
   306   1 h    0.877 --   304 o    0.814
   307   8 o    1.824 --   309 h    0.858   308 h    0.839
   308   1 h    0.889 --   307 o    0.839
   309   1 h    0.903 --   307 o    0.858
   310   8 o    1.858 --   312 h    0.828   311 h    0.823
   311   1 h    0.878 --   310 o    0.823
   312   1 h    0.881 --   310 o    0.828
   313   8 o    1.855 --   315 h    0.912   314 h    0.798
   314   1 h    0.876 --   313 o    0.798
   315   1 h    0.919 --   313 o    0.912
   316   8 o    1.844 --   317 h    0.866   318 h    0.859
   317   1 h    0.899 --   316 o    0.866
   318   1 h    0.894 --   316 o    0.859
   319   8 o    1.853 --   320 h    0.888   321 h    0.833
   320   1 h    0.902 --   319 o    0.888
   321   1 h    0.886 --   319 o    0.833
   322   8 o    1.869 --   324 h    0.828   323 h    0.809
   323   1 h    0.888 --   322 o    0.809
   324   1 h    0.882 --   322 o    0.828
   325   8 o    1.857 --   327 h    0.854   326 h    0.796
   326   1 h    0.884 --   325 o    0.796
   327   1 h    0.884 --   325 o    0.854
   328   8 o    1.837 --   330 h    0.909   329 h    0.816
   329   1 h    0.876 --   328 o    0.816
   330   1 h    0.915 --   328 o    0.909
   331   8 o    1.855 --   333 h    0.879   332 h    0.839
   332   1 h    0.886 --   331 o    0.839
   333   1 h    0.899 --   331 o    0.879
   334   8 o    1.844 --   335 h    0.860   336 h    0.859
   335   1 h    0.899 --   334 o    0.860
   336   1 h    0.895 --   334 o    0.859
   337   8 o    1.862 --   339 h    0.912   338 h    0.797
   338   1 h    0.877 --   337 o    0.797
   339   1 h    0.920 --   337 o    0.912
   340   8 o    1.830 --   341 h    0.860   342 h    0.812
   341   1 h    0.895 --   340 o    0.860
   342   1 h    0.891 --   340 o    0.812
   343   8 o    1.891 --   344 h    0.824   345 h    0.794
   344   1 h    0.887 --   343 o    0.824
   345   1 h    0.880 --   343 o    0.794
   346   8 o    1.799 --   347 h    0.841   348 h    0.825
   347   1 h    0.890 --   346 o    0.841
   348   1 h    0.887 --   346 o    0.825
   349   8 o    1.826 --   350 h    0.805   351 h    0.746
   350   1 h    0.882 --   349 o    0.805
   351   1 h    0.868 --   349 o    0.746   385 o    0.113
   352   8 o    1.838 --   354 h    0.856   353 h    0.833
   353   1 h    0.890 --   352 o    0.833
   354   1 h    0.899 --   352 o    0.856
   355   8 o    1.814 --   356 h    0.891   357 h    0.844
   356   1 h    0.909 --   355 o    0.891
   357   1 h    0.890 --   355 o    0.844
   358   8 o    1.849 --   360 h    0.883   359 h    0.858
   359   1 h    0.888 --   358 o    0.858
   360   1 h    0.901 --   358 o    0.883
   361   8 o    1.873 --   363 h    0.876   362 h    0.817
   362   1 h    0.883 --   361 o    0.817
   363   1 h    0.903 --   361 o    0.876
   364   8 o    1.852 --   366 h    0.827   365 h    0.819
   365   1 h    0.884 --   364 o    0.819
   366   1 h    0.889 --   364 o    0.827
   367   8 o    1.847 --   369 h    0.867   368 h    0.847
   368   1 h    0.893 --   367 o    0.847
   369   1 h    0.898 --   367 o    0.867
   370   8 o    1.824 --   372 h    0.875   371 h    0.802
   371   1 h    0.881 --   370 o    0.802
   372   1 h    0.905 --   370 o    0.875
   373   8 o    1.848 --   375 h    0.894   374 h    0.792
   374   1 h    0.874 --   373 o    0.792
   375   1 h    0.909 --   373 o    0.894
   376   8 o    1.860 --   377 h    0.911   378 h    0.807
   377   1 h    0.918 --   376 o    0.911
   378   1 h    0.888 --   376 o    0.807
   379   8 o    1.822 --   380 h    0.836   381 h    0.809
   380   1 h    0.897 --   379 o    0.836
   381   1 h    0.888 --   379 o    0.809
   382   8 o    1.866 --   383 h    0.899   384 h    0.770
   383   1 h    0.909 --   382 o    0.899
   384   1 h    0.879 --   382 o    0.770
   385   8 o    1.868 --   386 h    0.854   387 h    0.781   351 h    0.113
   386   1 h    0.893 --   385 o    0.854
   387   1 h    0.868 --   385 o    0.781
   388   8 o    1.848 --   389 h    0.851   390 h    0.781
   389   1 h    0.894 --   388 o    0.851
   390   1 h    0.872 --   388 o    0.781
   391   8 o    1.836 --   392 h    0.880   393 h    0.871
   392   1 h    0.903 --   391 o    0.880
   393   1 h    0.894 --   391 o    0.871
   394   8 o    1.874 --   395 h    0.829   396 h    0.803
   395   1 h    0.885 --   394 o    0.829
   396   1 h    0.874 --   394 o    0.803
   397   8 o    1.835 --   399 h    0.919   398 h    0.841
   398   1 h    0.889 --   397 o    0.841
   399   1 h    0.923 --   397 o    0.919
   400   8 o    1.823 --   401 h    0.858   402 h    0.830
   401   1 h    0.893 --   400 o    0.858
   402   1 h    0.889 --   400 o    0.830
   403   8 o    1.838 --   405 h    0.899   404 h    0.784
   404   1 h    0.872 --   403 o    0.784
   405   1 h    0.911 --   403 o    0.899
   406   8 o    1.858 --   408 h    0.817   407 h    0.785
   407   1 h    0.874 --   406 o    0.785
   408   1 h    0.890 --   406 o    0.817
   409   8 o    1.864 --   410 h    0.882   411 h    0.865
   410   1 h    0.898 --   409 o    0.882
   411   1 h    0.894 --   409 o    0.865
   412   8 o    1.835 --   413 h    0.815   414 h    0.813
   413   1 h    0.885 --   412 o    0.815
   414   1 h    0.884 --   412 o    0.813
   415   8 o    1.862 --   417 h    0.841   416 h    0.820
   416   1 h    0.887 --   415 o    0.820
   417   1 h    0.887 --   415 o    0.841
   418   8 o    1.845 --   419 h    0.905   420 h    0.824
   419   1 h    0.911 --   418 o    0.905
   420   1 h    0.887 --   418 o    0.824
   421   8 o    1.868 --   422 h    0.863   423 h    0.850
   422   1 h    0.894 --   421 o    0.863
   423   1 h    0.890 --   421 o    0.850
   424   8 o    1.845 --   425 h    0.856   426 h    0.830
   425   1 h    0.898 --   424 o    0.856
   426   1 h    0.886 --   424 o    0.830
   427   8 o    1.857 --   428 h    0.858   429 h    0.852
   428   1 h    0.896 --   427 o    0.858
   429   1 h    0.893 --   427 o    0.852
   430   8 o    1.820 --   431 h    0.827   432 h    0.814
   431   1 h    0.899 --   430 o    0.827
   432   1 h    0.879 --   430 o    0.814
   433   8 o    1.848 --   435 h    0.822   434 h    0.817
   434   1 h    0.889 --   433 o    0.817
   435   1 h    0.890 --   433 o    0.822
   436   8 o    1.808 --   438 h    0.860   437 h    0.857
   437   1 h    0.897 --   436 o    0.857
   438   1 h    0.897 --   436 o    0.860
   439   8 o    1.848 --   440 h    0.865   441 h    0.834
   440   1 h    0.903 --   439 o    0.865
   441   1 h    0.891 --   439 o    0.834
   442   8 o    1.852 --   443 h    0.878   444 h    0.783
   443   1 h    0.897 --   442 o    0.878
   444   1 h    0.873 --   442 o    0.783
   445   8 o    1.855 --   447 h    0.827   446 h    0.817
   446   1 h    0.877 --   445 o    0.817
   447   1 h    0.886 --   445 o    0.827
   448   8 o    1.848 --   449 h    0.858   450 h    0.783
   449   1 h    0.901 --   448 o    0.858
   450   1 h    0.875 --   448 o    0.783
   451   8 o    1.850 --   453 h    0.855   452 h    0.826
   452   1 h    0.868 --   451 o    0.826
   453   1 h    0.895 --   451 o    0.855
   454   8 o    1.842 --   455 h    0.844   456 h    0.829
   455   1 h    0.894 --   454 o    0.844
   456   1 h    0.894 --   454 o    0.829
   457   8 o    1.880 --   459 h    0.824   458 h    0.817
   458   1 h    0.888 --   457 o    0.817
   459   1 h    0.882 --   457 o    0.824
   460   8 o    1.862 --   462 h    0.907   461 h    0.835
   461   1 h    0.879 --   460 o    0.835
   462   1 h    0.914 --   460 o    0.907
   463   8 o    1.871 --   464 h    0.853   465 h    0.827
   464   1 h    0.896 --   463 o    0.853
   465   1 h    0.886 --   463 o    0.827
   466   8 o    1.877 --   467 h    0.908   468 h    0.804
   467   1 h    0.915 --   466 o    0.908
   468   1 h    0.877 --   466 o    0.804
   469   8 o    1.860 --   470 h    0.856   471 h    0.793
   470   1 h    0.897 --   469 o    0.856
   471   1 h    0.871 --   469 o    0.793
   472   8 o    1.863 --   474 h    0.915   473 h    0.810
   473   1 h    0.878 --   472 o    0.810
   474   1 h    0.918 --   472 o    0.915
   475   8 o    1.830 --   477 h    0.859   476 h    0.821
   476   1 h    0.879 --   475 o    0.821
   477   1 h    0.893 --   475 o    0.859
   478   8 o    1.859 --   480 h    0.866   479 h    0.844
   479   1 h    0.890 --   478 o    0.844
   480   1 h    0.901 --   478 o    0.866
   481   8 o    1.852 --   482 h    0.827   483 h    0.823
   482   1 h    0.881 --   481 o    0.827
   483   1 h    0.889 --   481 o    0.823
   484   8 o    1.879 --   485 h    0.860   486 h    0.821
   485   1 h    0.893 --   484 o    0.860
   486   1 h    0.872 --   484 o    0.821
   487   8 o    1.843 --   488 h    0.864   489 h    0.864
   488   1 h    0.897 --   487 o    0.864
   489   1 h    0.896 --   487 o    0.864
   490   8 o    1.854 --   491 h    0.818   492 h    0.803
   491   1 h    0.887 --   490 o    0.818
   492   1 h    0.875 --   490 o    0.803
   493   8 o    1.841 --   495 h    0.849   494 h    0.846
   494   1 h    0.892 --   493 o    0.846
   495   1 h    0.891 --   493 o    0.849
   496   8 o    1.834 --   498 h    0.866   497 h    0.858
   497   1 h    0.893 --   496 o    0.858
   498   1 h    0.899 --   496 o    0.866
   499   8 o    1.858 --   501 h    0.837   500 h    0.822
   500   1 h    0.879 --   499 o    0.822
   501   1 h    0.892 --   499 o    0.837
   502   8 o    1.852 --   503 h    0.848   504 h    0.828
   503   1 h    0.894 --   502 o    0.848
   504   1 h    0.889 --   502 o    0.828
   505   8 o    1.873 --   507 h    0.868   506 h    0.820
   506   1 h    0.871 --   505 o    0.820
   507   1 h    0.900 --   505 o    0.868
   508   8 o    1.885 --   510 h    0.824   509 h    0.823
   509   1 h    0.889 --   508 o    0.823
   510   1 h    0.887 --   508 o    0.824
   511   8 o    1.865 --   512 h    0.882   513 h    0.800
   512   1 h    0.901 --   511 o    0.882
   513   1 h    0.881 --   511 o    0.800
   514   8 o    1.844 --   515 h    0.853   516 h    0.827
   515   1 h    0.897 --   514 o    0.853
   516   1 h    0.889 --   514 o    0.827
   517   8 o    1.867 --   519 h    0.872   518 h    0.820
   518   1 h    0.888 --   517 o    0.820
   519   1 h    0.898 --   517 o    0.872
   520   8 o    1.849 --   521 h    0.846   522 h    0.826
   521   1 h    0.893 --   520 o    0.846
   522   1 h    0.893 --   520 o    0.826
   523   8 o    1.874 --   525 h    0.886   524 h    0.789
   524   1 h    0.869 --   523 o    0.789
   525   1 h    0.903 --   523 o    0.886
   526   8 o    1.807 --   527 h    0.869   528 h    0.833
   527   1 h    0.899 --   526 o    0.869
   528   1 h    0.876 --   526 o    0.833
   529   8 o    1.812 --   531 h    0.891   530 h    0.853
   530   1 h    0.890 --   529 o    0.853
   531   1 h    0.897 --   529 o    0.891
 ---------------------------------------------------------------------------

Topologies differ in total number of bonds
Writing topology from bond orders to xtbtopo.mol

molecular dipole:
                 x           y           z       tot (Debye)
 q only:       -1.606       0.340      -0.407
   full:       -1.543       1.063      -1.346       5.865
molecular quadrupole (traceless):
                xx          xy          yy          xz          yz          zz
 q only:       59.162       6.770     -55.520       8.466      -0.881      -3.642
  q+dip:       72.019       8.613     -77.857      -1.413     -10.245       5.838
   full:       72.965       8.333     -78.992      -2.632      -9.850       6.027


           -------------------------------------------------
          | TOTAL ENERGY             -901.189093618052 Eh   |
          | GRADIENT NORM               0.099705855341 Eh/α |
          | HOMO-LUMO GAP               6.657949574711 eV   |
           -------------------------------------------------

------------------------------------------------------------------------
 * finished run on 2022/11/17 at 06:55:19.858     
------------------------------------------------------------------------
 total:
 * wall-time:     0 d,  0 h,  0 min, 20.119 sec
 *  cpu-time:     0 d,  0 h,  0 min, 26.064 sec
 * ratio c/w:     1.296 speedup
 SCF:
 * wall-time:     0 d,  0 h,  0 min, 19.563 sec
 *  cpu-time:     0 d,  0 h,  0 min, 25.059 sec
 * ratio c/w:     1.281 speedup

