      -----------------------------------------------------------      
     |                   =====================                   |     
     |                           x T B                           |     
     |                   =====================                   |     
     |                         S. Grimme                         |     
     |          Mulliken Center for Theoretical Chemistry        |     
     |                    University of Bonn                     |     
      -----------------------------------------------------------      

   * xtb version 6.5.1 (579679a) compiled by 'ehlert@majestix' on 2022-07-11

   xtb is free software: you can redistribute it and/or modify it under
   the terms of the GNU Lesser General Public License as published by
   the Free Software Foundation, either version 3 of the License, or
   (at your option) any later version.
   
   xtb is distributed in the hope that it will be useful,
   but WITHOUT ANY WARRANTY; without even the implied warranty of
   MERCHANTABILITY or FITNESS FOR A PARTICULAR PURPOSE.  See the
   GNU Lesser General Public License for more details.
   
   Cite this work as:
   * C. Bannwarth, E. Caldeweyher, S. Ehlert, A. Hansen, P. Pracht,
     J. Seibert, S. Spicher, S. Grimme, WIREs Comput. Mol. Sci., 2020, 11,
     e01493. DOI: 10.1002/wcms.1493
   
   for GFN2-xTB:
   * C. Bannwarth, S. Ehlert and S. Grimme., J. Chem. Theory Comput., 2019,
     15, 1652-1671. DOI: 10.1021/acs.jctc.8b01176
   for GFN1-xTB:
   * S. Grimme, C. Bannwarth, P. Shushkov, J. Chem. Theory Comput., 2017,
     13, 1989-2009. DOI: 10.1021/acs.jctc.7b00118
   for GFN0-xTB:
   * P. Pracht, E. Caldeweyher, S. Ehlert, S. Grimme, ChemRxiv, 2019, preprint.
     DOI: 10.26434/chemrxiv.8326202.v1
   for GFN-FF:
   * S. Spicher and S. Grimme, Angew. Chem. Int. Ed., 2020, 59, 15665-15673.
     DOI: 10.1002/anie.202004239
   
   for ALPB and GBSA implicit solvation:
   * S. Ehlert, M. Stahn, S. Spicher, S. Grimme, J. Chem. Theory Comput.,
     2021, 17, 4250-4261. DOI: 10.1021/acs.jctc.1c00471
   
   for DFT-D4:
   * E. Caldeweyher, C. Bannwarth and S. Grimme, J. Chem. Phys., 2017,
     147, 034112. DOI: 10.1063/1.4993215
   * E. Caldeweyher, S. Ehlert, A. Hansen, H. Neugebauer, S. Spicher,
     C. Bannwarth and S. Grimme, J. Chem. Phys., 2019, 150, 154122.
     DOI: 10.1063/1.5090222
   * E. Caldeweyher, J.-M. Mewes, S. Ehlert and S. Grimme, Phys. Chem. Chem. Phys.
     2020, 22, 8499-8512. DOI: 10.1039/D0CP00502A
   
   for sTDA-xTB:
   * S. Grimme and C. Bannwarth, J. Chem. Phys., 2016, 145, 054103.
     DOI: 10.1063/1.4959605
   
   in the mass-spec context:
   * V. Asgeirsson, C. Bauer and S. Grimme, Chem. Sci., 2017, 8, 4879.
     DOI: 10.1039/c7sc00601b
   * J. Koopman and S. Grimme, ACS Omega 2019, 4, 12, 15120-15133.
     DOI: 10.1021/acsomega.9b02011
   
   for metadynamics refer to:
   * S. Grimme, J. Chem. Theory Comput., 2019, 155, 2847-2862
     DOI: 10.1021/acs.jctc.9b00143
   
   for SPH calculations refer to:
   * S. Spicher and S. Grimme, J. Chem. Theory Comput., 2021, 17, 1701-1714
     DOI: 10.1021/acs.jctc.0c01306
   
   with help from (in alphabetical order)
   P. Atkinson, C. Bannwarth, F. Bohle, G. Brandenburg, E. Caldeweyher
   M. Checinski, S. Dohm, S. Ehlert, S. Ehrlich, I. Gerasimov, C. Hölzer
   A. Katbashev, J. Koopman, C. Lavigne, S. Lehtola, F. März, M. Müller,
   F. Musil, H. Neugebauer, J. Pisarek, C. Plett, P. Pracht, F. Pultar,
   J. Seibert, P. Shushkov, S. Spicher, M. Stahn, M. Steiner, T. Strunk,
   J. Stückrath, T. Rose, and J. Unsleber
   
 * started run on 2022/11/17 at 06:54:49.178     

           -------------------------------------------------
          |                Calculation Setup                |
           -------------------------------------------------

          program call               : xtb xtbopt.coord --gfn2 --sp --gbsa water
          hostname                   : cn0363
          coordinate file            : xtbopt.coord
          omp threads                :                     2

   ID    Z sym.   atoms
    1    8 o      1, 4, 7, 10, 13, 16, 19, 22, 25, 28, 31, 34, 37, 40, 43,
                  46, 49, 52, 55, 58, 61, 64, 67, 70, 73, 76, 79, 82, 85, 88,
                  91, 94, 97, 100, 103, 106, 109, 112, 115, 118, 121, 124,
                  127, 130, 133, 136, 139, 142, 145, 148, 151, 154, 157, 160,
                  163, 166, 169, 172, 175, 178, 181, 184, 187, 190, 193, 196,
                  199, 202, 205, 208, 211, 214, 217, 220, 223, 226, 229, 232,
                  235, 238, 241, 244, 247, 250, 253, 256, 259, 262, 265, 268,
                  271, 274, 277, 280, 283, 286, 289, 292, 295, 298, 301, 304,
                  307, 310, 313, 316, 319, 322, 325, 328, 331, 334, 337, 340,
                  343, 346, 349, 352, 355, 358, 361, 364, 367, 370, 373, 376,
                  379, 382, 385, 388, 391, 394, 397, 400, 403, 406, 409, 412,
                  415, 418, 421, 424, 427, 430, 433, 436, 439, 442, 445, 448,
                  451, 454, 457, 460, 463, 466, 469, 472, 475, 478, 481, 484,
                  487, 490, 493, 496, 499, 502, 505, 508, 511, 514, 517, 520,
                  523, 526, 529
    2    1 h      2, 3, 5, 6, 8, 9, 11, 12, 14, 15, 17, 18, 20, 21, 23, 24,
                  26, 27, 29, 30, 32, 33, 35, 36, 38, 39, 41, 42, 44, 45, 47,
                  48, 50, 51, 53, 54, 56, 57, 59, 60, 62, 63, 65, 66, 68, 69,
                  71, 72, 74, 75, 77, 78, 80, 81, 83, 84, 86, 87, 89, 90, 92,
                  93, 95, 96, 98, 99, 101, 102, 104, 105, 107, 108, 110, 111,
                  113, 114, 116, 117, 119, 120, 122, 123, 125, 126, 128, 129,
                  131, 132, 134, 135, 137, 138, 140, 141, 143, 144, 146, 147,
                  149, 150, 152, 153, 155, 156, 158, 159, 161, 162, 164, 165,
                  167, 168, 170, 171, 173, 174, 176, 177, 179, 180, 182, 183,
                  185, 186, 188, 189, 191, 192, 194, 195, 197, 198, 200, 201,
                  203, 204, 206, 207, 209, 210, 212, 213, 215, 216, 218, 219,
                  221, 222, 224, 225, 227, 228, 230, 231, 233, 234, 236, 237,
                  239, 240, 242, 243, 245, 246, 248, 249, 251, 252, 254, 255,
                  257, 258, 260, 261, 263, 264, 266, 267, 269, 270, 272, 273,
                  275, 276, 278, 279, 281, 282, 284, 285, 287, 288, 290, 291,
                  293, 294, 296, 297, 299, 300, 302, 303, 305, 306, 308, 309,
                  311, 312, 314, 315, 317, 318, 320, 321, 323, 324, 326, 327,
                  329, 330, 332, 333, 335, 336, 338, 339, 341, 342, 344, 345,
                  347, 348, 350, 351, 353, 354, 356, 357, 359, 360, 362, 363,
                  365, 366, 368, 369, 371, 372, 374, 375, 377, 378, 380, 381,
                  383, 384, 386, 387, 389, 390, 392, 393, 395, 396, 398, 399,
                  401, 402, 404, 405, 407, 408, 410, 411, 413, 414, 416, 417,
                  419, 420, 422, 423, 425, 426, 428, 429, 431, 432, 434, 435,
                  437, 438, 440, 441, 443, 444, 446, 447, 449, 450, 452, 453,
                  455, 456, 458, 459, 461, 462, 464, 465, 467, 468, 470, 471,
                  473, 474, 476, 477, 479, 480, 482, 483, 485, 486, 488, 489,
                  491, 492, 494, 495, 497, 498, 500, 501, 503, 504, 506, 507,
                  509, 510, 512, 513, 515, 516, 518, 519, 521, 522, 524, 525,
                  527, 528, 530, 531

molecular fragmentation (1/2 indicates fragments):
111222222222222222222222222222222222222222222222222222222222222222222222
222222222222222222222222222222222222222222222222222222222222222222222222
222222222222222222222222222222222222222222222222222222222222222222222222
222222222222222222222222222222222222222222222222222222222222222222222222
222222222222222222222222222222222222222222222222222222222222222222222222
222222222222222222222222222222222222222222222222222222222222222222222222
222222222222222222222222222222222222222222222222222222222222222222222222
222222222222222222222222222
# atoms in fragment 1/2:     3   528
 fragment masses (1/2) :       18.02     3170.69
CMA distance (Bohr)    :   6.451
constraining FC (au)   :  0.0500

           -------------------------------------------------
          |                 G F N 2 - x T B                 |
           -------------------------------------------------

        Reference                      10.1021/acs.jctc.8b01176
      * Hamiltonian:
        H0-scaling (s, p, d)           1.850000    2.230000    2.230000
        zeta-weighting                 0.500000
      * Dispersion:
        s8                             2.700000
        a1                             0.520000
        a2                             5.000000
        s9                             5.000000
      * Repulsion:
        kExp                           1.500000    1.000000
        rExp                           1.000000
      * Coulomb:
        alpha                          2.000000
        third order                    shell-resolved
        anisotropic                    true
        a3                             3.000000
        a5                             4.000000
        cn-shift                       1.200000
        cn-exp                         4.000000
        max-rad                        5.000000

      * Solvation model:               GBSA
        Solvent                        water
        Parameter file                 internal GFN2-xTB/GBSA
        Dielectric constant                8.0200E+01
        Reference state                gsolv [1 M gas/solution]
        Free energy shift                  1.8574E-03 Eh       1.1656E+00 kcal/mol
        Temperature                        2.9815E+02 K
        Density                            1.0000E+00 kg/L
        Solvent mass                       1.8000E+01 g/mol
        Interaction kernel             Still
        Born radius scaling (c1)           1.5524E+00
        Born radii integrator          GBOBC
        Born offset                        2.4628E-02 a0       4.6540E-02 AA
        H-bond correction              true
        Ion screening                  false
        Surface tension                    1.0000E-05 Eh       1.5569E+01 dyn/cm
        Grid points                               230 per atom

          ...................................................
          :                      SETUP                      :
          :.................................................:
          :  # basis functions                1062          :
          :  # atomic orbitals                1062          :
          :  # shells                          708          :
          :  # electrons                      1416          :
          :  max. iterations                   250          :
          :  Hamiltonian                  GFN2-xTB          :
          :  restarted?                      false          :
          :  GBSA solvation                   true          :
          :  PC potential                    false          :
          :  electronic temp.          300.0000000     K    :
          :  accuracy                    1.0000000          :
          :  -> integral cutoff          0.2500000E+02      :
          :  -> integral neglect         0.1000000E-07      :
          :  -> SCF convergence          0.1000000E-05 Eh   :
          :  -> wf. convergence          0.1000000E-03 e    :
          :  Broyden damping             0.4000000          :
          ...................................................

 iter      E             dE          RMSdq      gap      omega  full diag
   1   -906.7884777 -0.906788E+03  0.408E+00    8.59       0.0  T
   2   -906.8527870 -0.643093E-01  0.241E+00    8.25       1.0  T
   3   -906.8789567 -0.261696E-01  0.233E-01    7.32       1.0  T
   4   -906.8830347 -0.407803E-02  0.512E-02    7.54       1.0  T
   5   -906.8831913 -0.156609E-03  0.317E-02    7.48       1.0  T
   6   -906.8832262 -0.348956E-04  0.362E-03    7.49       1.2  T
   7   -906.8832273 -0.107705E-05  0.854E-04    7.49       5.1  T
   8   -906.8832273 -0.404150E-07  0.466E-04    7.49       9.3  T
   9   -906.8832274 -0.206049E-07  0.119E-04    7.49      36.5  T

   *** convergence criteria satisfied after 9 iterations ***

         #    Occupation            Energy/Eh            Energy/eV
      -------------------------------------------------------------
         1        2.0000           -0.6557330             -17.8434
       ...           ...                  ...                  ...
       702        2.0000           -0.3472844              -9.4501
       703        2.0000           -0.3467391              -9.4353
       704        2.0000           -0.3457970              -9.4096
       705        2.0000           -0.3402426              -9.2585
       706        2.0000           -0.3392311              -9.2309
       707        2.0000           -0.3379131              -9.1951
       708        2.0000           -0.3302160              -8.9856 (HOMO)
       709                         -0.0550651              -1.4984 (LUMO)
       710                         -0.0465754              -1.2674
       711                         -0.0309393              -0.8419
       712                         -0.0273207              -0.7434
       713                         -0.0196257              -0.5340
       ...                                ...                  ...
      1062                          0.4814486              13.1009
      -------------------------------------------------------------
                  HL-Gap            0.2751509 Eh            7.4872 eV
             Fermi-level           -0.1926406 Eh           -5.2420 eV

 SCC (total)                   0 d,  0 h,  0 min,  8.885 sec
 SCC setup                      ...        0 min,  0.111 sec (  1.247%)
 Dispersion                     ...        0 min,  0.073 sec (  0.818%)
 classical contributions        ...        0 min,  0.016 sec (  0.176%)
 integral evaluation            ...        0 min,  0.559 sec (  6.291%)
 iterations                     ...        0 min,  3.278 sec ( 36.899%)
 molecular gradient             ...        0 min,  4.818 sec ( 54.222%)
 printout                       ...        0 min,  0.031 sec (  0.346%)

         :::::::::::::::::::::::::::::::::::::::::::::::::::::
         ::                     SUMMARY                     ::
         :::::::::::::::::::::::::::::::::::::::::::::::::::::
         :: total energy            -901.400086143086 Eh    ::
         :: total w/o Gsasa/hb      -901.208064954028 Eh    ::
         :: gradient norm              0.109765825504 Eh/a0 ::
         :: HOMO-LUMO gap              7.487236266568 eV    ::
         ::.................................................::
         :: SCC energy              -906.883227364552 Eh    ::
         :: -> isotropic ES            5.252865908152 Eh    ::
         :: -> anisotropic ES         -1.115046500693 Eh    ::
         :: -> anisotropic XC         -0.086213135499 Eh    ::
         :: -> dispersion             -0.535735723652 Eh    ::
         :: -> Gsolv                  -0.224038086165 Eh    ::
         ::    -> Gelec               -0.032016897107 Eh    ::
         ::    -> Gsasa                0.003450020910 Eh    ::
         ::    -> Ghb                 -0.197328653094 Eh    ::
         ::    -> Gshift               0.001857443127 Eh    ::
         :: repulsion energy           5.386996013212 Eh    ::
         :: add. restraining           0.000000000000 Eh    ::
         :: total charge              -0.000000000000 e     ::
         :::::::::::::::::::::::::::::::::::::::::::::::::::::

           -------------------------------------------------
          |                Property Printout                |
           -------------------------------------------------

    * Orbital Energies and Occupations

         #    Occupation            Energy/Eh            Energy/eV
      -------------------------------------------------------------
         1        2.0000           -0.6557330             -17.8434
       ...           ...                  ...                  ...
       696        2.0000           -0.3607745              -9.8172
       697        2.0000           -0.3595379              -9.7835
       698        2.0000           -0.3578288              -9.7370
       699        2.0000           -0.3510455              -9.5524
       700        2.0000           -0.3505202              -9.5381
       701        2.0000           -0.3489240              -9.4947
       702        2.0000           -0.3472844              -9.4501
       703        2.0000           -0.3467391              -9.4353
       704        2.0000           -0.3457970              -9.4096
       705        2.0000           -0.3402426              -9.2585
       706        2.0000           -0.3392311              -9.2309
       707        2.0000           -0.3379131              -9.1951
       708        2.0000           -0.3302160              -8.9856 (HOMO)
       709                         -0.0550651              -1.4984 (LUMO)
       710                         -0.0465754              -1.2674
       711                         -0.0309393              -0.8419
       712                         -0.0273207              -0.7434
       713                         -0.0196257              -0.5340
       714                         -0.0133252              -0.3626
       715                         -0.0093991              -0.2558
       716                          0.0012259               0.0334
       717                          0.0026739               0.0728
       718                          0.0048932               0.1332
       719                          0.0115776               0.3150
       ...                                ...                  ...
      1062                          0.4814486              13.1009
      -------------------------------------------------------------
                  HL-Gap            0.2751509 Eh            7.4872 eV
             Fermi-level           -0.1926406 Eh           -5.2420 eV

     #   Z          covCN         q      C6AA      α(0)
     1   8 o        1.607    -0.681    27.216     7.041
     2   1 h        0.803     0.334     0.626     1.243
     3   1 h        0.804     0.329     0.639     1.256
     4   8 o        1.609    -0.675    27.059     7.021
     5   1 h        0.804     0.357     0.572     1.188
     6   1 h        0.804     0.335     0.624     1.241
     7   8 o        1.608    -0.676    27.092     7.025
     8   1 h        0.803     0.345     0.600     1.217
     9   1 h        0.805     0.321     0.660     1.276
    10   8 o        1.610    -0.678    27.135     7.031
    11   1 h        0.805     0.326     0.646     1.263
    12   1 h        0.805     0.332     0.633     1.249
    13   8 o        1.608    -0.683    27.270     7.048
    14   1 h        0.804     0.337     0.619     1.236
    15   1 h        0.804     0.336     0.623     1.240
    16   8 o        1.607    -0.669    26.890     6.999
    17   1 h        0.803     0.339     0.614     1.231
    18   1 h        0.804     0.328     0.641     1.258
    19   8 o        1.607    -0.672    26.965     7.008
    20   1 h        0.805     0.325     0.652     1.268
    21   1 h        0.803     0.347     0.595     1.212
    22   8 o        1.608    -0.683    27.265     7.047
    23   1 h        0.804     0.356     0.575     1.191
    24   1 h        0.804     0.335     0.624     1.241
    25   8 o        1.609    -0.670    26.921     7.003
    26   1 h        0.804     0.336     0.622     1.239
    27   1 h        0.805     0.314     0.682     1.297
    28   8 o        1.606    -0.689    27.411     7.066
    29   1 h        0.803     0.348     0.593     1.210
    30   1 h        0.804     0.345     0.601     1.217
    31   8 o        1.609    -0.676    27.079     7.023
    32   1 h        0.805     0.330     0.637     1.254
    33   1 h        0.804     0.340     0.613     1.230
    34   8 o        1.607    -0.676    27.079     7.023
    35   1 h        0.803     0.342     0.608     1.225
    36   1 h        0.803     0.353     0.581     1.197
    37   8 o        1.607    -0.684    27.281     7.049
    38   1 h        0.804     0.342     0.608     1.225
    39   1 h        0.804     0.344     0.603     1.220
    40   8 o        1.609    -0.674    27.017     7.015
    41   1 h        0.803     0.349     0.590     1.206
    42   1 h        0.804     0.354     0.580     1.196
    43   8 o        1.608    -0.670    26.927     7.003
    44   1 h        0.805     0.352     0.583     1.199
    45   1 h        0.803     0.336     0.623     1.240
    46   8 o        1.608    -0.679    27.167     7.035
    47   1 h        0.803     0.357     0.572     1.188
    48   1 h        0.805     0.315     0.677     1.293
    49   8 o        1.607    -0.683    27.273     7.048
    50   1 h        0.802     0.362     0.562     1.177
    51   1 h        0.805     0.342     0.607     1.224
    52   8 o        1.608    -0.673    27.005     7.014
    53   1 h        0.804     0.333     0.631     1.247
    54   1 h        0.804     0.352     0.583     1.199
    55   8 o        1.608    -0.690    27.453     7.071
    56   1 h        0.803     0.338     0.617     1.234
    57   1 h        0.804     0.339     0.615     1.232
    58   8 o        1.606    -0.701    27.747     7.109
    59   1 h        0.804     0.345     0.600     1.217
    60   1 h        0.803     0.349     0.591     1.207
    61   8 o        1.608    -0.655    26.533     6.952
    62   1 h        0.805     0.311     0.688     1.303
    63   1 h        0.803     0.350     0.589     1.206
    64   8 o        1.609    -0.663    26.753     6.981
    65   1 h        0.804     0.337     0.619     1.236
    66   1 h        0.804     0.343     0.604     1.221
    67   8 o        1.609    -0.677    27.108     7.027
    68   1 h        0.805     0.338     0.617     1.234
    69   1 h        0.804     0.332     0.631     1.248
    70   8 o        1.605    -0.697    27.620     7.093
    71   1 h        0.802     0.350     0.589     1.206
    72   1 h        0.803     0.322     0.659     1.275
    73   8 o        1.606    -0.687    27.379     7.062
    74   1 h        0.803     0.349     0.591     1.208
    75   1 h        0.803     0.347     0.594     1.211
    76   8 o        1.607    -0.684    27.303     7.052
    77   1 h        0.803     0.340     0.612     1.229
    78   1 h        0.804     0.346     0.597     1.213
    79   8 o        1.607    -0.684    27.285     7.050
    80   1 h        0.804     0.352     0.584     1.200
    81   1 h        0.803     0.335     0.624     1.241
    82   8 o        1.609    -0.672    26.970     7.009
    83   1 h        0.805     0.327     0.646     1.262
    84   1 h        0.804     0.361     0.563     1.179
    85   8 o        1.606    -0.702    27.773     7.113
    86   1 h        0.803     0.360     0.565     1.181
    87   1 h        0.804     0.324     0.653     1.269
    88   8 o        1.609    -0.659    26.653     6.968
    89   1 h        0.805     0.332     0.633     1.250
    90   1 h        0.804     0.345     0.601     1.217
    91   8 o        1.607    -0.689    27.408     7.066
    92   1 h        0.803     0.336     0.623     1.240
    93   1 h        0.803     0.331     0.635     1.252
    94   8 o        1.609    -0.664    26.758     6.982
    95   1 h        0.805     0.323     0.657     1.273
    96   1 h        0.803     0.360     0.565     1.181
    97   8 o        1.609    -0.668    26.862     6.995
    98   1 h        0.804     0.344     0.603     1.220
    99   1 h        0.805     0.326     0.647     1.264
   100   8 o        1.609    -0.676    27.086     7.024
   101   1 h        0.805     0.324     0.654     1.270
   102   1 h        0.803     0.348     0.593     1.209
   103   8 o        1.604    -0.715    28.109     7.155
   104   1 h        0.803     0.346     0.598     1.215
   105   1 h        0.803     0.336     0.622     1.239
   106   8 o        1.608    -0.689    27.411     7.066
   107   1 h        0.803     0.350     0.588     1.205
   108   1 h        0.804     0.343     0.606     1.223
   109   8 o        1.608    -0.675    27.042     7.018
   110   1 h        0.804     0.348     0.592     1.209
   111   1 h        0.804     0.355     0.576     1.192
   112   8 o        1.608    -0.667    26.852     6.994
   113   1 h        0.805     0.333     0.630     1.247
   114   1 h        0.803     0.346     0.598     1.214
   115   8 o        1.606    -0.682    27.246     7.045
   116   1 h        0.802     0.345     0.601     1.218
   117   1 h        0.804     0.356     0.575     1.191
   118   8 o        1.609    -0.664    26.774     6.984
   119   1 h        0.804     0.332     0.633     1.250
   120   1 h        0.805     0.343     0.604     1.221
   121   8 o        1.609    -0.669    26.906     7.001
   122   1 h        0.803     0.332     0.631     1.248
   123   1 h        0.805     0.332     0.631     1.248
   124   8 o        1.609    -0.671    26.943     7.006
   125   1 h        0.805     0.331     0.634     1.250
   126   1 h        0.804     0.331     0.636     1.252
   127   8 o        1.609    -0.666    26.818     6.989
   128   1 h        0.806     0.309     0.695     1.309
   129   1 h        0.803     0.353     0.582     1.199
   130   8 o        1.606    -0.670    26.936     7.005
   131   1 h        0.803     0.329     0.641     1.257
   132   1 h        0.803     0.337     0.620     1.237
   133   8 o        1.607    -0.696    27.595     7.090
   134   1 h        0.803     0.352     0.584     1.201
   135   1 h        0.804     0.336     0.622     1.239
   136   8 o        1.609    -0.684    27.301     7.052
   137   1 h        0.805     0.332     0.633     1.250
   138   1 h        0.804     0.340     0.612     1.228
   139   8 o        1.606    -0.691    27.474     7.074
   140   1 h        0.803     0.349     0.590     1.207
   141   1 h        0.804     0.333     0.630     1.247
   142   8 o        1.609    -0.674    27.040     7.018
   143   1 h        0.803     0.348     0.592     1.209
   144   1 h        0.805     0.337     0.620     1.237
   145   8 o        1.607    -0.667    26.860     6.995
   146   1 h        0.804     0.334     0.626     1.243
   147   1 h        0.802     0.337     0.620     1.237
   148   8 o        1.607    -0.668    26.874     6.997
   149   1 h        0.802     0.349     0.592     1.208
   150   1 h        0.806     0.310     0.692     1.306
   151   8 o        1.607    -0.664    26.779     6.984
   152   1 h        0.803     0.330     0.637     1.254
   153   1 h        0.803     0.346     0.598     1.215
   154   8 o        1.609    -0.658    26.608     6.962
   155   1 h        0.806     0.307     0.701     1.315
   156   1 h        0.803     0.342     0.607     1.224
   157   8 o        1.606    -0.666    26.812     6.988
   158   1 h        0.803     0.332     0.633     1.249
   159   1 h        0.802     0.350     0.589     1.206
   160   8 o        1.605    -0.704    27.815     7.118
   161   1 h        0.803     0.337     0.619     1.236
   162   1 h        0.802     0.359     0.569     1.185
   163   8 o        1.609    -0.673    26.992     7.012
   164   1 h        0.805     0.315     0.676     1.292
   165   1 h        0.803     0.346     0.599     1.215
   166   8 o        1.608    -0.648    26.357     6.929
   167   1 h        0.805     0.316     0.674     1.290
   168   1 h        0.803     0.341     0.610     1.227
   169   8 o        1.609    -0.673    26.993     7.012
   170   1 h        0.806     0.307     0.700     1.314
   171   1 h        0.803     0.362     0.561     1.177
   172   8 o        1.609    -0.672    26.972     7.009
   173   1 h        0.805     0.313     0.684     1.299
   174   1 h        0.804     0.337     0.619     1.235
   175   8 o        1.608    -0.688    27.402     7.065
   176   1 h        0.804     0.341     0.609     1.226
   177   1 h        0.804     0.342     0.607     1.224
   178   8 o        1.608    -0.673    27.003     7.013
   179   1 h        0.804     0.332     0.631     1.248
   180   1 h        0.804     0.357     0.572     1.188
   181   8 o        1.607    -0.680    27.191     7.038
   182   1 h        0.804     0.352     0.582     1.199
   183   1 h        0.803     0.356     0.574     1.190
   184   8 o        1.609    -0.657    26.592     6.960
   185   1 h        0.804     0.340     0.613     1.230
   186   1 h        0.805     0.316     0.674     1.290
   187   8 o        1.607    -0.654    26.515     6.950
   188   1 h        0.803     0.342     0.607     1.224
   189   1 h        0.804     0.336     0.622     1.239
   190   8 o        1.606    -0.700    27.725     7.106
   191   1 h        0.804     0.349     0.589     1.206
   192   1 h        0.803     0.342     0.608     1.225
   193   8 o        1.607    -0.677    27.109     7.027
   194   1 h        0.805     0.342     0.608     1.225
   195   1 h        0.802     0.365     0.555     1.170
   196   8 o        1.609    -0.654    26.524     6.951
   197   1 h        0.806     0.319     0.667     1.283
   198   1 h        0.803     0.349     0.591     1.208
   199   8 o        1.606    -0.697    27.630     7.094
   200   1 h        0.803     0.354     0.580     1.196
   201   1 h        0.803     0.325     0.650     1.266
   202   8 o        1.607    -0.669    26.910     7.001
   203   1 h        0.804     0.339     0.615     1.231
   204   1 h        0.804     0.334     0.628     1.245
   205   8 o        1.608    -0.677    27.108     7.027
   206   1 h        0.804     0.328     0.643     1.259
   207   1 h        0.804     0.349     0.591     1.208
   208   8 o        1.609    -0.666    26.826     6.990
   209   1 h        0.804     0.345     0.600     1.217
   210   1 h        0.804     0.341     0.609     1.226
   211   8 o        1.607    -0.677    27.118     7.028
   212   1 h        0.803     0.336     0.623     1.240
   213   1 h        0.803     0.352     0.583     1.199
   214   8 o        1.608    -0.665    26.787     6.985
   215   1 h        0.803     0.357     0.573     1.189
   216   1 h        0.805     0.316     0.674     1.290
   217   8 o        1.607    -0.681    27.208     7.040
   218   1 h        0.804     0.351     0.585     1.202
   219   1 h        0.802     0.350     0.588     1.205
   220   8 o        1.605    -0.687    27.365     7.060
   221   1 h        0.805     0.316     0.675     1.291
   222   1 h        0.801     0.362     0.561     1.177
   223   8 o        1.607    -0.677    27.099     7.026
   224   1 h        0.803     0.360     0.566     1.182
   225   1 h        0.805     0.327     0.644     1.260
   226   8 o        1.606    -0.680    27.181     7.036
   227   1 h        0.802     0.359     0.568     1.184
   228   1 h        0.804     0.322     0.658     1.274
   229   8 o        1.609    -0.671    26.961     7.008
   230   1 h        0.804     0.329     0.640     1.257
   231   1 h        0.805     0.324     0.654     1.270
   232   8 o        1.607    -0.672    26.975     7.010
   233   1 h        0.802     0.348     0.592     1.209
   234   1 h        0.805     0.327     0.645     1.261
   235   8 o        1.609    -0.681    27.201     7.039
   236   1 h        0.804     0.353     0.580     1.197
   237   1 h        0.804     0.342     0.607     1.224
   238   8 o        1.605    -0.702    27.758     7.111
   239   1 h        0.803     0.350     0.589     1.206
   240   1 h        0.803     0.354     0.579     1.195
   241   8 o        1.608    -0.684    27.284     7.050
   242   1 h        0.804     0.339     0.614     1.231
   243   1 h        0.804     0.337     0.621     1.238
   244   8 o        1.607    -0.696    27.594     7.090
   245   1 h        0.804     0.335     0.624     1.241
   246   1 h        0.804     0.341     0.610     1.227
   247   8 o        1.608    -0.676    27.080     7.023
   248   1 h        0.804     0.345     0.601     1.218
   249   1 h        0.804     0.337     0.619     1.236
   250   8 o        1.608    -0.668    26.877     6.997
   251   1 h        0.804     0.333     0.630     1.247
   252   1 h        0.803     0.357     0.571     1.187
   253   8 o        1.608    -0.650    26.406     6.935
   254   1 h        0.805     0.324     0.652     1.269
   255   1 h        0.803     0.337     0.620     1.237
   256   8 o        1.608    -0.679    27.154     7.033
   257   1 h        0.805     0.334     0.627     1.244
   258   1 h        0.803     0.329     0.639     1.256
   259   8 o        1.609    -0.662    26.712     6.976
   260   1 h        0.804     0.334     0.628     1.245
   261   1 h        0.805     0.328     0.644     1.260
   262   8 o        1.606    -0.679    27.150     7.032
   263   1 h        0.806     0.310     0.692     1.307
   264   1 h        0.801     0.351     0.585     1.202
   265   8 o        1.608    -0.690    27.453     7.072
   266   1 h        0.804     0.334     0.627     1.244
   267   1 h        0.804     0.336     0.622     1.239
   268   8 o        1.610    -0.656    26.577     6.958
   269   1 h        0.805     0.318     0.668     1.284
   270   1 h        0.805     0.336     0.621     1.238
   271   8 o        1.609    -0.664    26.775     6.984
   272   1 h        0.805     0.332     0.632     1.248
   273   1 h        0.804     0.332     0.631     1.248
   274   8 o        1.608    -0.673    26.992     7.012
   275   1 h        0.804     0.320     0.664     1.280
   276   1 h        0.804     0.336     0.621     1.238
   277   8 o        1.608    -0.677    27.113     7.028
   278   1 h        0.803     0.357     0.572     1.188
   279   1 h        0.805     0.322     0.659     1.275
   280   8 o        1.608    -0.680    27.181     7.036
   281   1 h        0.804     0.349     0.591     1.208
   282   1 h        0.804     0.334     0.626     1.243
   283   8 o        1.608    -0.678    27.121     7.029
   284   1 h        0.803     0.348     0.593     1.210
   285   1 h        0.805     0.314     0.679     1.295
   286   8 o        1.608    -0.676    27.092     7.025
   287   1 h        0.803     0.349     0.591     1.208
   288   1 h        0.805     0.328     0.643     1.259
   289   8 o        1.607    -0.647    26.345     6.927
   290   1 h        0.802     0.346     0.597     1.214
   291   1 h        0.806     0.312     0.687     1.302
   292   8 o        1.608    -0.671    26.940     7.005
   293   1 h        0.805     0.343     0.604     1.221
   294   1 h        0.803     0.338     0.617     1.234
   295   8 o        1.607    -0.677    27.112     7.027
   296   1 h        0.803     0.331     0.634     1.251
   297   1 h        0.804     0.348     0.593     1.210
   298   8 o        1.607    -0.692    27.510     7.079
   299   1 h        0.804     0.320     0.663     1.279
   300   1 h        0.803     0.352     0.585     1.201
   301   8 o        1.609    -0.652    26.457     6.942
   302   1 h        0.805     0.331     0.634     1.251
   303   1 h        0.804     0.340     0.612     1.229
   304   8 o        1.608    -0.669    26.899     7.000
   305   1 h        0.806     0.315     0.676     1.292
   306   1 h        0.803     0.353     0.581     1.198
   307   8 o        1.609    -0.671    26.961     7.008
   308   1 h        0.804     0.334     0.626     1.243
   309   1 h        0.805     0.321     0.662     1.278
   310   8 o        1.608    -0.674    27.029     7.017
   311   1 h        0.804     0.347     0.596     1.212
   312   1 h        0.804     0.343     0.604     1.221
   313   8 o        1.607    -0.660    26.680     6.971
   314   1 h        0.802     0.351     0.586     1.202
   315   1 h        0.806     0.312     0.687     1.302
   316   8 o        1.609    -0.673    27.008     7.014
   317   1 h        0.805     0.329     0.639     1.256
   318   1 h        0.804     0.343     0.606     1.223
   319   8 o        1.609    -0.676    27.091     7.025
   320   1 h        0.805     0.328     0.643     1.259
   321   1 h        0.804     0.351     0.586     1.202
   322   8 o        1.606    -0.685    27.314     7.054
   323   1 h        0.802     0.329     0.640     1.257
   324   1 h        0.804     0.354     0.579     1.195
   325   8 o        1.606    -0.685    27.318     7.054
   326   1 h        0.803     0.349     0.591     1.208
   327   1 h        0.805     0.334     0.626     1.243
   328   8 o        1.608    -0.672    26.972     7.009
   329   1 h        0.803     0.361     0.564     1.180
   330   1 h        0.806     0.307     0.700     1.314
   331   8 o        1.610    -0.662    26.714     6.976
   332   1 h        0.804     0.346     0.598     1.214
   333   1 h        0.805     0.331     0.636     1.252
   334   8 o        1.608    -0.686    27.354     7.059
   335   1 h        0.804     0.336     0.622     1.238
   336   1 h        0.804     0.339     0.615     1.231
   337   8 o        1.607    -0.668    26.873     6.996
   338   1 h        0.802     0.352     0.585     1.201
   339   1 h        0.806     0.318     0.670     1.286
   340   8 o        1.606    -0.682    27.244     7.045
   341   1 h        0.805     0.331     0.634     1.251
   342   1 h        0.802     0.333     0.629     1.246
   343   8 o        1.607    -0.670    26.933     7.004
   344   1 h        0.803     0.337     0.619     1.236
   345   1 h        0.803     0.341     0.610     1.227
   346   8 o        1.607    -0.688    27.402     7.065
   347   1 h        0.804     0.335     0.625     1.242
   348   1 h        0.803     0.334     0.627     1.244
   349   8 o        1.601    -0.731    28.545     7.211
   350   1 h        0.803     0.345     0.600     1.217
   351   1 h        0.805     0.362     0.561     1.176
   352   8 o        1.608    -0.683    27.270     7.048
   353   1 h        0.803     0.339     0.615     1.232
   354   1 h        0.804     0.328     0.644     1.260
   355   8 o        1.609    -0.671    26.950     7.007
   356   1 h        0.805     0.315     0.679     1.294
   357   1 h        0.804     0.340     0.611     1.228
   358   8 o        1.610    -0.659    26.648     6.967
   359   1 h        0.805     0.347     0.595     1.211
   360   1 h        0.805     0.324     0.653     1.269
   361   8 o        1.608    -0.666    26.811     6.988
   362   1 h        0.803     0.346     0.597     1.214
   363   1 h        0.805     0.327     0.645     1.262
   364   8 o        1.607    -0.681    27.224     7.042
   365   1 h        0.803     0.348     0.592     1.209
   366   1 h        0.804     0.330     0.636     1.253
   367   8 o        1.609    -0.675    27.055     7.020
   368   1 h        0.804     0.338     0.618     1.235
   369   1 h        0.804     0.331     0.635     1.252
   370   8 o        1.607    -0.689    27.425     7.068
   371   1 h        0.802     0.353     0.582     1.199
   372   1 h        0.805     0.316     0.675     1.291
   373   8 o        1.607    -0.685    27.303     7.052
   374   1 h        0.802     0.363     0.559     1.175
   375   1 h        0.805     0.314     0.681     1.297
   376   8 o        1.608    -0.642    26.223     6.911
   377   1 h        0.806     0.302     0.716     1.329
   378   1 h        0.803     0.335     0.625     1.242
   379   8 o        1.606    -0.692    27.504     7.078
   380   1 h        0.804     0.323     0.656     1.273
   381   1 h        0.802     0.336     0.621     1.238
   382   8 o        1.605    -0.658    26.619     6.963
   383   1 h        0.806     0.309     0.695     1.310
   384   1 h        0.802     0.348     0.594     1.211
   385   8 o        1.614    -0.673    26.990     7.012
   386   1 h        0.805     0.323     0.655     1.271
   387   1 h        0.803     0.361     0.564     1.180
   388   8 o        1.605    -0.699    27.699     7.103
   389   1 h        0.804     0.330     0.636     1.253
   390   1 h        0.801     0.361     0.564     1.180
   391   8 o        1.610    -0.661    26.697     6.974
   392   1 h        0.805     0.328     0.642     1.259
   393   1 h        0.805     0.336     0.622     1.239
   394   8 o        1.607    -0.677    27.120     7.028
   395   1 h        0.803     0.337     0.621     1.238
   396   1 h        0.803     0.355     0.576     1.193
   397   8 o        1.609    -0.666    26.830     6.991
   398   1 h        0.804     0.343     0.604     1.221
   399   1 h        0.806     0.315     0.677     1.293
   400   8 o        1.609    -0.663    26.756     6.981
   401   1 h        0.805     0.324     0.653     1.269
   402   1 h        0.804     0.333     0.629     1.246
   403   8 o        1.607    -0.679    27.171     7.035
   404   1 h        0.802     0.362     0.562     1.177
   405   1 h        0.805     0.308     0.698     1.312
   406   8 o        1.604    -0.706    27.870     7.125
   407   1 h        0.802     0.359     0.567     1.183
   408   1 h        0.802     0.332     0.632     1.249
   409   8 o        1.610    -0.660    26.674     6.971
   410   1 h        0.805     0.338     0.618     1.234
   411   1 h        0.805     0.339     0.615     1.232
   412   8 o        1.607    -0.702    27.755     7.110
   413   1 h        0.804     0.344     0.602     1.219
   414   1 h        0.803     0.344     0.602     1.219
   415   8 o        1.607    -0.680    27.195     7.038
   416   1 h        0.803     0.337     0.621     1.238
   417   1 h        0.804     0.345     0.600     1.216
   418   8 o        1.609    -0.669    26.909     7.001
   419   1 h        0.806     0.319     0.666     1.281
   420   1 h        0.803     0.344     0.602     1.219
   421   8 o        1.610    -0.666    26.825     6.990
   422   1 h        0.805     0.337     0.619     1.236
   423   1 h        0.804     0.342     0.606     1.223
   424   8 o        1.608    -0.667    26.842     6.992
   425   1 h        0.805     0.326     0.649     1.265
   426   1 h        0.803     0.338     0.618     1.235
   427   8 o        1.608    -0.672    26.969     7.009
   428   1 h        0.804     0.337     0.619     1.236
   429   1 h        0.804     0.335     0.625     1.242
   430   8 o        1.607    -0.697    27.620     7.093
   431   1 h        0.804     0.318     0.668     1.284
   432   1 h        0.803     0.350     0.588     1.204
   433   8 o        1.606    -0.685    27.316     7.054
   434   1 h        0.803     0.337     0.619     1.236
   435   1 h        0.803     0.330     0.638     1.254
   436   8 o        1.609    -0.672    26.975     7.010
   437   1 h        0.804     0.329     0.640     1.257
   438   1 h        0.805     0.329     0.639     1.256
   439   8 o        1.608    -0.680    27.177     7.036
   440   1 h        0.805     0.327     0.645     1.262
   441   1 h        0.803     0.338     0.617     1.234
   442   8 o        1.607    -0.688    27.406     7.065
   443   1 h        0.805     0.321     0.662     1.278
   444   1 h        0.802     0.364     0.557     1.172
   445   8 o        1.607    -0.681    27.202     7.039
   446   1 h        0.804     0.349     0.590     1.206
   447   1 h        0.803     0.338     0.617     1.234
   448   8 o        1.606    -0.690    27.451     7.071
   449   1 h        0.805     0.319     0.666     1.282
   450   1 h        0.802     0.360     0.567     1.183
   451   8 o        1.609    -0.665    26.806     6.988
   452   1 h        0.804     0.361     0.563     1.179
   453   1 h        0.805     0.328     0.642     1.259
   454   8 o        1.607    -0.680    27.177     7.036
   455   1 h        0.804     0.330     0.639     1.255
   456   1 h        0.803     0.333     0.631     1.248
   457   8 o        1.607    -0.690    27.444     7.070
   458   1 h        0.803     0.339     0.615     1.232
   459   1 h        0.803     0.353     0.581     1.198
   460   8 o        1.610    -0.657    26.604     6.961
   461   1 h        0.804     0.352     0.583     1.199
   462   1 h        0.806     0.325     0.649     1.265
   463   8 o        1.608    -0.674    27.024     7.016
   464   1 h        0.804     0.328     0.641     1.258
   465   1 h        0.803     0.348     0.593     1.210
   466   8 o        1.607    -0.644    26.275     6.918
   467   1 h        0.806     0.312     0.686     1.301
   468   1 h        0.802     0.348     0.594     1.211
   469   8 o        1.606    -0.678    27.123     7.029
   470   1 h        0.804     0.321     0.661     1.277
   471   1 h        0.802     0.361     0.563     1.179
   472   8 o        1.608    -0.656    26.574     6.957
   473   1 h        0.803     0.352     0.583     1.200
   474   1 h        0.806     0.314     0.681     1.296
   475   8 o        1.608    -0.683    27.265     7.047
   476   1 h        0.804     0.353     0.582     1.199
   477   1 h        0.805     0.331     0.635     1.251
   478   8 o        1.609    -0.677    27.105     7.027
   479   1 h        0.804     0.343     0.605     1.222
   480   1 h        0.805     0.328     0.642     1.259
   481   8 o        1.606    -0.675    27.052     7.020
   482   1 h        0.803     0.344     0.602     1.219
   483   1 h        0.803     0.331     0.634     1.251
   484   8 o        1.609    -0.656    26.572     6.957
   485   1 h        0.805     0.335     0.626     1.242
   486   1 h        0.804     0.358     0.570     1.186
   487   8 o        1.609    -0.671    26.959     7.008
   488   1 h        0.805     0.335     0.625     1.242
   489   1 h        0.805     0.337     0.619     1.236
   490   8 o        1.607    -0.694    27.552     7.084
   491   1 h        0.803     0.339     0.614     1.231
   492   1 h        0.804     0.352     0.583     1.200
   493   8 o        1.608    -0.675    27.049     7.019
   494   1 h        0.804     0.335     0.625     1.242
   495   1 h        0.804     0.337     0.621     1.237
   496   8 o        1.609    -0.674    27.019     7.015
   497   1 h        0.804     0.341     0.609     1.226
   498   1 h        0.805     0.328     0.643     1.259
   499   8 o        1.608    -0.669    26.903     7.000
   500   1 h        0.804     0.352     0.584     1.200
   501   1 h        0.804     0.325     0.651     1.267
   502   8 o        1.608    -0.674    27.040     7.018
   503   1 h        0.804     0.330     0.638     1.255
   504   1 h        0.803     0.339     0.615     1.232
   505   8 o        1.609    -0.664    26.781     6.984
   506   1 h        0.804     0.359     0.568     1.184
   507   1 h        0.805     0.327     0.645     1.261
   508   8 o        1.606    -0.661    26.706     6.975
   509   1 h        0.803     0.332     0.632     1.249
   510   1 h        0.803     0.337     0.620     1.237
   511   8 o        1.607    -0.663    26.739     6.979
   512   1 h        0.805     0.324     0.653     1.269
   513   1 h        0.802     0.345     0.600     1.217
   514   8 o        1.607    -0.672    26.978     7.010
   515   1 h        0.804     0.328     0.643     1.260
   516   1 h        0.803     0.335     0.625     1.242
   517   8 o        1.608    -0.662    26.731     6.978
   518   1 h        0.803     0.339     0.614     1.231
   519   1 h        0.805     0.330     0.638     1.254
   520   8 o        1.608    -0.663    26.746     6.980
   521   1 h        0.805     0.330     0.639     1.255
   522   1 h        0.803     0.325     0.649     1.266
   523   8 o        1.608    -0.659    26.657     6.968
   524   1 h        0.802     0.361     0.563     1.179
   525   1 h        0.805     0.320     0.664     1.280
   526   8 o        1.608    -0.665    26.790     6.986
   527   1 h        0.805     0.321     0.661     1.277
   528   1 h        0.803     0.335     0.625     1.241
   529   8 o        1.610    -0.644    26.252     6.915
   530   1 h        0.805     0.328     0.642     1.258
   531   1 h        0.805     0.313     0.683     1.299

 Mol. C6AA /au·bohr⁶  :    1428632.370961
 Mol. C8AA /au·bohr⁸  :   25907295.627078
 Mol. α(0) /au        :       1680.146554


Wiberg/Mayer (AO) data.
largest (>0.10) Wiberg bond orders for each atom

 ---------------------------------------------------------------------------
     #   Z sym  total        # sym  WBO       # sym  WBO       # sym  WBO
 ---------------------------------------------------------------------------
     1   8 o    1.834 --     3 h    0.838     2 h    0.825
     2   1 h    0.888 --     1 o    0.825
     3   1 h    0.892 --     1 o    0.838
     4   8 o    1.868 --     6 h    0.828     5 h    0.818
     5   1 h    0.872 --     4 o    0.818
     6   1 h    0.888 --     4 o    0.828
     7   8 o    1.837 --     9 h    0.864     8 h    0.804
     8   1 h    0.881 --     7 o    0.804
     9   1 h    0.897 --     7 o    0.864
    10   8 o    1.803 --    11 h    0.848    12 h    0.841
    11   1 h    0.893 --    10 o    0.848
    12   1 h    0.890 --    10 o    0.841
    13   8 o    1.831 --    14 h    0.843    15 h    0.842
    14   1 h    0.886 --    13 o    0.843
    15   1 h    0.887 --    13 o    0.842
    16   8 o    1.870 --    18 h    0.835    17 h    0.823
    17   1 h    0.885 --    16 o    0.823
    18   1 h    0.892 --    16 o    0.835
    19   8 o    1.849 --    20 h    0.855    21 h    0.806
    20   1 h    0.895 --    19 o    0.855
    21   1 h    0.879 --    19 o    0.806
    22   8 o    1.845 --    23 h    0.833    24 h    0.831
    23   1 h    0.873 --    22 o    0.833
    24   1 h    0.888 --    22 o    0.831
    25   8 o    1.813 --    27 h    0.864    26 h    0.840
    26   1 h    0.887 --    25 o    0.840
    27   1 h    0.902 --    25 o    0.864
    28   8 o    1.869 --    30 h    0.815    29 h    0.800
    29   1 h    0.879 --    28 o    0.800
    30   1 h    0.881 --    28 o    0.815
    31   8 o    1.836 --    32 h    0.854    33 h    0.822
    32   1 h    0.891 --    31 o    0.854
    33   1 h    0.885 --    31 o    0.822
    34   8 o    1.889 --    35 h    0.820    36 h    0.805
    35   1 h    0.883 --    34 o    0.820
    36   1 h    0.875 --    34 o    0.805
    37   8 o    1.863 --    38 h    0.823    39 h    0.823
    38   1 h    0.883 --    37 o    0.823
    39   1 h    0.882 --    37 o    0.823
    40   8 o    1.883 --    42 h    0.824    41 h    0.813
    41   1 h    0.878 --    40 o    0.813
    42   1 h    0.875 --    40 o    0.824
    43   8 o    1.876 --    44 h    0.825    45 h    0.820
    44   1 h    0.876 --    43 o    0.825
    45   1 h    0.887 --    43 o    0.820
    46   8 o    1.822 --    48 h    0.883    47 h    0.809
    47   1 h    0.872 --    46 o    0.809
    48   1 h    0.901 --    46 o    0.883
    49   8 o    1.862 --    51 h    0.862    50 h    0.779
    50   1 h    0.869 --    49 o    0.779
    51   1 h    0.883 --    49 o    0.862
    52   8 o    1.862 --    53 h    0.833    54 h    0.819
    53   1 h    0.889 --    52 o    0.833
    54   1 h    0.876 --    52 o    0.819
    55   8 o    1.831 --    57 h    0.839    56 h    0.818
    56   1 h    0.886 --    55 o    0.818
    57   1 h    0.885 --    55 o    0.839
    58   8 o    1.846 --    59 h    0.815    60 h    0.785
    59   1 h    0.881 --    58 o    0.815
    60   1 h    0.878 --    58 o    0.785
    61   8 o    1.845 --    62 h    0.892    63 h    0.812
    62   1 h    0.903 --    61 o    0.892
    63   1 h    0.878 --    61 o    0.812
    64   8 o    1.879 --    66 h    0.834    65 h    0.831
    65   1 h    0.886 --    64 o    0.831
    66   1 h    0.882 --    64 o    0.834
    67   8 o    1.831 --    68 h    0.843    69 h    0.837
    68   1 h    0.886 --    67 o    0.843
    69   1 h    0.889 --    67 o    0.837
    70   8 o    1.830 --    72 h    0.824    71 h    0.799
    71   1 h    0.878 --    70 o    0.799
    72   1 h    0.896 --    70 o    0.824
    73   8 o    1.863 --    74 h    0.814    75 h    0.813
    74   1 h    0.878 --    73 o    0.814
    75   1 h    0.879 --    73 o    0.813
    76   8 o    1.853 --    77 h    0.829    78 h    0.815
    77   1 h    0.884 --    76 o    0.829
    78   1 h    0.880 --    76 o    0.815
    79   8 o    1.854 --    81 h    0.826    80 h    0.821
    80   1 h    0.876 --    79 o    0.821
    81   1 h    0.888 --    79 o    0.826
    82   8 o    1.857 --    83 h    0.859    84 h    0.819
    83   1 h    0.893 --    82 o    0.859
    84   1 h    0.870 --    82 o    0.819
    85   8 o    1.827 --    87 h    0.845    86 h    0.787
    86   1 h    0.870 --    85 o    0.787
    87   1 h    0.895 --    85 o    0.845
    88   8 o    1.847 --    89 h    0.870    90 h    0.835
    89   1 h    0.890 --    88 o    0.870
    90   1 h    0.881 --    88 o    0.835
    91   8 o    1.829 --    93 h    0.826    92 h    0.821
    92   1 h    0.887 --    91 o    0.821
    93   1 h    0.890 --    91 o    0.826
    94   8 o    1.843 --    95 h    0.875    96 h    0.815
    95   1 h    0.896 --    94 o    0.875
    96   1 h    0.870 --    94 o    0.815
    97   8 o    1.838 --    99 h    0.866    98 h    0.823
    98   1 h    0.882 --    97 o    0.823
    99   1 h    0.894 --    97 o    0.866
   100   8 o    1.824 --   101 h    0.876   102 h    0.815
   101   1 h    0.895 --   100 o    0.876
   102   1 h    0.879 --   100 o    0.815
   103   8 o    1.826 --   104 h    0.806   105 h    0.794
   104   1 h    0.880 --   103 o    0.806
   105   1 h    0.887 --   103 o    0.794
   106   8 o    1.840 --   108 h    0.843   107 h    0.821
   107   1 h    0.877 --   106 o    0.821
   108   1 h    0.883 --   106 o    0.843
   109   8 o    1.880 --   110 h    0.826   111 h    0.817
   110   1 h    0.879 --   109 o    0.826
   111   1 h    0.874 --   109 o    0.817
   112   8 o    1.869 --   113 h    0.854   114 h    0.807
   113   1 h    0.889 --   112 o    0.854
   114   1 h    0.880 --   112 o    0.807
   115   8 o    1.893 --   117 h    0.818   116 h    0.796
   116   1 h    0.881 --   115 o    0.796
   117   1 h    0.873 --   115 o    0.818
   118   8 o    1.872 --   119 h    0.835   120 h    0.832
   119   1 h    0.890 --   118 o    0.835
   120   1 h    0.882 --   118 o    0.832
   121   8 o    1.849 --   123 h    0.852   122 h    0.827
   122   1 h    0.889 --   121 o    0.827
   123   1 h    0.889 --   121 o    0.852
   124   8 o    1.813 --   125 h    0.858   126 h    0.840
   125   1 h    0.890 --   124 o    0.858
   126   1 h    0.891 --   124 o    0.840
   127   8 o    1.820 --   128 h    0.899   129 h    0.814
   128   1 h    0.905 --   127 o    0.899
   129   1 h    0.876 --   127 o    0.814
   130   8 o    1.876 --   132 h    0.825   131 h    0.820
   131   1 h    0.892 --   130 o    0.820
   132   1 h    0.886 --   130 o    0.825
   133   8 o    1.845 --   135 h    0.819   134 h    0.801
   134   1 h    0.876 --   133 o    0.801
   135   1 h    0.887 --   133 o    0.819
   136   8 o    1.817 --   137 h    0.860   138 h    0.831
   137   1 h    0.890 --   136 o    0.860
   138   1 h    0.884 --   136 o    0.831
   139   8 o    1.860 --   141 h    0.827   140 h    0.785
   140   1 h    0.878 --   139 o    0.785
   141   1 h    0.889 --   139 o    0.827
   142   8 o    1.853 --   144 h    0.849   143 h    0.811
   143   1 h    0.879 --   142 o    0.811
   144   1 h    0.887 --   142 o    0.849
   145   8 o    1.873 --   146 h    0.848   147 h    0.814
   146   1 h    0.888 --   145 o    0.848
   147   1 h    0.886 --   145 o    0.814
   148   8 o    1.826 --   150 h    0.899   149 h    0.801
   149   1 h    0.878 --   148 o    0.801
   150   1 h    0.904 --   148 o    0.899
   151   8 o    1.889 --   152 h    0.836   153 h    0.814
   152   1 h    0.891 --   151 o    0.836
   153   1 h    0.880 --   151 o    0.814
   154   8 o    1.825 --   155 h    0.904   156 h    0.821
   155   1 h    0.906 --   154 o    0.904
   156   1 h    0.883 --   154 o    0.821
   157   8 o    1.903 --   158 h    0.829   159 h    0.805
   158   1 h    0.890 --   157 o    0.829
   159   1 h    0.878 --   157 o    0.805
   160   8 o    1.850 --   161 h    0.821   162 h    0.786
   161   1 h    0.886 --   160 o    0.821
   162   1 h    0.871 --   160 o    0.786
   163   8 o    1.806 --   164 h    0.884   165 h    0.824
   164   1 h    0.900 --   163 o    0.884
   165   1 h    0.880 --   163 o    0.824
   166   8 o    1.872 --   167 h    0.868   168 h    0.819
   167   1 h    0.900 --   166 o    0.868
   168   1 h    0.884 --   166 o    0.819
   169   8 o    1.811 --   170 h    0.899   171 h    0.808
   170   1 h    0.906 --   169 o    0.899
   171   1 h    0.869 --   169 o    0.808
   172   8 o    1.787 --   173 h    0.883   174 h    0.846
   173   1 h    0.902 --   172 o    0.883
   174   1 h    0.886 --   172 o    0.846
   175   8 o    1.830 --   177 h    0.841   176 h    0.840
   176   1 h    0.884 --   175 o    0.840
   177   1 h    0.883 --   175 o    0.841
   178   8 o    1.868 --   179 h    0.835   180 h    0.810
   179   1 h    0.889 --   178 o    0.835
   180   1 h    0.873 --   178 o    0.810
   181   8 o    1.899 --   182 h    0.823   183 h    0.793
   182   1 h    0.876 --   181 o    0.823
   183   1 h    0.873 --   181 o    0.793
   184   8 o    1.822 --   186 h    0.875   185 h    0.842
   185   1 h    0.885 --   184 o    0.842
   186   1 h    0.900 --   184 o    0.875
   187   8 o    1.890 --   189 h    0.850   188 h    0.820
   188   1 h    0.883 --   187 o    0.820
   189   1 h    0.887 --   187 o    0.850
   190   8 o    1.838 --   191 h    0.828   192 h    0.795
   191   1 h    0.878 --   190 o    0.828
   192   1 h    0.883 --   190 o    0.795
   193   8 o    1.876 --   194 h    0.850   195 h    0.783
   194   1 h    0.883 --   193 o    0.850
   195   1 h    0.867 --   193 o    0.783
   196   8 o    1.841 --   197 h    0.892   198 h    0.823
   197   1 h    0.898 --   196 o    0.892
   198   1 h    0.878 --   196 o    0.823
   199   8 o    1.837 --   201 h    0.822   200 h    0.796
   200   1 h    0.875 --   199 o    0.796
   201   1 h    0.894 --   199 o    0.822
   202   8 o    1.850 --   204 h    0.834   203 h    0.831
   203   1 h    0.885 --   202 o    0.831
   204   1 h    0.888 --   202 o    0.834
   205   8 o    1.843 --   206 h    0.852   207 h    0.821
   206   1 h    0.892 --   205 o    0.852
   207   1 h    0.878 --   205 o    0.821
   208   8 o    1.864 --   209 h    0.842   210 h    0.835
   209   1 h    0.881 --   208 o    0.842
   210   1 h    0.884 --   208 o    0.835
   211   8 o    1.881 --   212 h    0.824   213 h    0.808
   212   1 h    0.887 --   211 o    0.824
   213   1 h    0.876 --   211 o    0.808
   214   8 o    1.853 --   216 h    0.866   215 h    0.804
   215   1 h    0.873 --   214 o    0.804
   216   1 h    0.900 --   214 o    0.866
   217   8 o    1.883 --   218 h    0.823   219 h    0.794
   218   1 h    0.877 --   217 o    0.823
   219   1 h    0.877 --   217 o    0.794
   220   8 o    1.840 --   221 h    0.881   222 h    0.767
   221   1 h    0.900 --   220 o    0.881
   222   1 h    0.869 --   220 o    0.767
   223   8 o    1.864 --   225 h    0.858   224 h    0.801
   224   1 h    0.871 --   223 o    0.801
   225   1 h    0.893 --   223 o    0.858
   226   8 o    1.869 --   228 h    0.847   227 h    0.787
   227   1 h    0.871 --   226 o    0.787
   228   1 h    0.896 --   226 o    0.847
   229   8 o    1.816 --   231 h    0.856   230 h    0.827
   230   1 h    0.892 --   229 o    0.827
   231   1 h    0.895 --   229 o    0.856
   232   8 o    1.854 --   234 h    0.861   233 h    0.803
   233   1 h    0.879 --   232 o    0.803
   234   1 h    0.893 --   232 o    0.861
   235   8 o    1.871 --   237 h    0.817   236 h    0.816
   236   1 h    0.875 --   235 o    0.816
   237   1 h    0.883 --   235 o    0.817
   238   8 o    1.874 --   239 h    0.800   240 h    0.794
   239   1 h    0.878 --   238 o    0.800
   240   1 h    0.875 --   238 o    0.794
   241   8 o    1.837 --   243 h    0.840   242 h    0.827
   242   1 h    0.885 --   241 o    0.827
   243   1 h    0.887 --   241 o    0.840
   244   8 o    1.821 --   245 h    0.838   246 h    0.823
   245   1 h    0.888 --   244 o    0.838
   246   1 h    0.884 --   244 o    0.823
   247   8 o    1.853 --   249 h    0.830   248 h    0.822
   248   1 h    0.881 --   247 o    0.822
   249   1 h    0.886 --   247 o    0.830
   250   8 o    1.880 --   251 h    0.849   252 h    0.809
   251   1 h    0.889 --   250 o    0.849
   252   1 h    0.872 --   250 o    0.809
   253   8 o    1.861 --   254 h    0.874   255 h    0.831
   254   1 h    0.895 --   253 o    0.874
   255   1 h    0.887 --   253 o    0.831
   256   8 o    1.814 --   257 h    0.854   258 h    0.830
   257   1 h    0.888 --   256 o    0.854
   258   1 h    0.891 --   256 o    0.830
   259   8 o    1.847 --   261 h    0.849   260 h    0.826
   260   1 h    0.889 --   259 o    0.826
   261   1 h    0.893 --   259 o    0.849
   262   8 o    1.816 --   263 h    0.899   264 h    0.786
   263   1 h    0.904 --   262 o    0.899
   264   1 h    0.876 --   262 o    0.786
   265   8 o    1.795 --   266 h    0.844   267 h    0.822
   266   1 h    0.888 --   265 o    0.844
   267   1 h    0.887 --   265 o    0.822
   268   8 o    1.829 --   269 h    0.861   270 h    0.845
   269   1 h    0.899 --   268 o    0.861
   270   1 h    0.887 --   268 o    0.845
   271   8 o    1.824 --   272 h    0.856   273 h    0.853
   272   1 h    0.890 --   271 o    0.856
   273   1 h    0.889 --   271 o    0.853
   274   8 o    1.830 --   275 h    0.845   276 h    0.830
   275   1 h    0.897 --   274 o    0.845
   276   1 h    0.887 --   274 o    0.830
   277   8 o    1.846 --   279 h    0.854   278 h    0.810
   278   1 h    0.872 --   277 o    0.810
   279   1 h    0.896 --   277 o    0.854
   280   8 o    1.841 --   282 h    0.853   281 h    0.821
   281   1 h    0.878 --   280 o    0.821
   282   1 h    0.888 --   280 o    0.853
   283   8 o    1.820 --   285 h    0.875   284 h    0.810
   284   1 h    0.879 --   283 o    0.810
   285   1 h    0.901 --   283 o    0.875
   286   8 o    1.828 --   288 h    0.862   287 h    0.825
   287   1 h    0.878 --   286 o    0.825
   288   1 h    0.892 --   286 o    0.862
   289   8 o    1.869 --   291 h    0.891   290 h    0.795
   290   1 h    0.880 --   289 o    0.795
   291   1 h    0.903 --   289 o    0.891
   292   8 o    1.862 --   293 h    0.844   294 h    0.816
   293   1 h    0.882 --   292 o    0.844
   294   1 h    0.886 --   292 o    0.816
   295   8 o    1.876 --   297 h    0.823   296 h    0.813
   296   1 h    0.890 --   295 o    0.813
   297   1 h    0.879 --   295 o    0.823
   298   8 o    1.814 --   299 h    0.857   300 h    0.806
   299   1 h    0.897 --   298 o    0.857
   300   1 h    0.876 --   298 o    0.806
   301   8 o    1.854 --   302 h    0.864   303 h    0.845
   302   1 h    0.890 --   301 o    0.864
   303   1 h    0.884 --   301 o    0.845
   304   8 o    1.821 --   305 h    0.892   306 h    0.813
   305   1 h    0.900 --   304 o    0.892
   306   1 h    0.875 --   304 o    0.813
   307   8 o    1.816 --   309 h    0.851   308 h    0.839
   308   1 h    0.888 --   307 o    0.839
   309   1 h    0.897 --   307 o    0.851
   310   8 o    1.860 --   312 h    0.830   311 h    0.825
   311   1 h    0.880 --   310 o    0.825
   312   1 h    0.882 --   310 o    0.830
   313   8 o    1.842 --   315 h    0.895   314 h    0.802
   314   1 h    0.877 --   313 o    0.802
   315   1 h    0.903 --   313 o    0.895
   316   8 o    1.820 --   317 h    0.859   318 h    0.846
   317   1 h    0.892 --   316 o    0.859
   318   1 h    0.883 --   316 o    0.846
   319   8 o    1.829 --   320 h    0.878   321 h    0.822
   320   1 h    0.892 --   319 o    0.878
   321   1 h    0.877 --   319 o    0.822
   322   8 o    1.865 --   324 h    0.818   323 h    0.817
   323   1 h    0.892 --   322 o    0.817
   324   1 h    0.875 --   322 o    0.818
   325   8 o    1.854 --   327 h    0.858   326 h    0.788
   326   1 h    0.878 --   325 o    0.788
   327   1 h    0.888 --   325 o    0.858
   328   8 o    1.819 --   330 h    0.900   329 h    0.807
   329   1 h    0.870 --   328 o    0.807
   330   1 h    0.906 --   328 o    0.900
   331   8 o    1.837 --   333 h    0.870   332 h    0.834
   332   1 h    0.880 --   331 o    0.834
   333   1 h    0.891 --   331 o    0.870
   334   8 o    1.815 --   336 h    0.848   335 h    0.847
   335   1 h    0.887 --   334 o    0.847
   336   1 h    0.885 --   334 o    0.848
   337   8 o    1.841 --   339 h    0.891   338 h    0.798
   338   1 h    0.876 --   337 o    0.798
   339   1 h    0.899 --   337 o    0.891
   340   8 o    1.821 --   341 h    0.856   342 h    0.812
   341   1 h    0.890 --   340 o    0.856
   342   1 h    0.889 --   340 o    0.812
   343   8 o    1.895 --   344 h    0.823   345 h    0.800
   344   1 h    0.886 --   343 o    0.823
   345   1 h    0.884 --   343 o    0.800
   346   8 o    1.796 --   347 h    0.839   348 h    0.828
   347   1 h    0.888 --   346 o    0.839
   348   1 h    0.888 --   346 o    0.828
   349   8 o    1.834 --   350 h    0.805   351 h    0.749
   350   1 h    0.881 --   349 o    0.805
   351   1 h    0.869 --   349 o    0.749   385 o    0.110
   352   8 o    1.821 --   354 h    0.849   353 h    0.827
   353   1 h    0.885 --   352 o    0.827
   354   1 h    0.893 --   352 o    0.849
   355   8 o    1.797 --   356 h    0.883   357 h    0.838
   356   1 h    0.901 --   355 o    0.883
   357   1 h    0.884 --   355 o    0.838
   358   8 o    1.831 --   360 h    0.877   359 h    0.849
   359   1 h    0.879 --   358 o    0.849
   360   1 h    0.895 --   358 o    0.877
   361   8 o    1.855 --   363 h    0.865   362 h    0.817
   362   1 h    0.880 --   361 o    0.817
   363   1 h    0.893 --   361 o    0.865
   364   8 o    1.849 --   366 h    0.832   365 h    0.812
   365   1 h    0.879 --   364 o    0.812
   366   1 h    0.891 --   364 o    0.832
   367   8 o    1.827 --   369 h    0.860   368 h    0.838
   368   1 h    0.886 --   367 o    0.838
   369   1 h    0.891 --   367 o    0.860
   370   8 o    1.809 --   372 h    0.870   371 h    0.794
   371   1 h    0.876 --   370 o    0.794
   372   1 h    0.900 --   370 o    0.870
   373   8 o    1.831 --   375 h    0.887   374 h    0.783
   374   1 h    0.868 --   373 o    0.783
   375   1 h    0.902 --   373 o    0.887
   376   8 o    1.852 --   377 h    0.902   378 h    0.809
   377   1 h    0.909 --   376 o    0.902
   378   1 h    0.888 --   376 o    0.809
   379   8 o    1.816 --   380 h    0.835   381 h    0.809
   380   1 h    0.896 --   379 o    0.835
   381   1 h    0.887 --   379 o    0.809
   382   8 o    1.865 --   383 h    0.896   384 h    0.774
   383   1 h    0.905 --   382 o    0.896
   384   1 h    0.879 --   382 o    0.774
   385   8 o    1.870 --   386 h    0.857   387 h    0.785   351 h    0.110
   386   1 h    0.895 --   385 o    0.857
   387   1 h    0.870 --   385 o    0.785
   388   8 o    1.844 --   389 h    0.848   390 h    0.781
   389   1 h    0.891 --   388 o    0.848
   390   1 h    0.870 --   388 o    0.781
   391   8 o    1.815 --   392 h    0.868   393 h    0.865
   392   1 h    0.892 --   391 o    0.868
   393   1 h    0.887 --   391 o    0.865
   394   8 o    1.879 --   395 h    0.832   396 h    0.805
   395   1 h    0.887 --   394 o    0.832
   396   1 h    0.874 --   394 o    0.805
   397   8 o    1.803 --   399 h    0.896   398 h    0.832
   398   1 h    0.882 --   397 o    0.832
   399   1 h    0.901 --   397 o    0.896
   400   8 o    1.826 --   401 h    0.860   402 h    0.831
   401   1 h    0.895 --   400 o    0.860
   402   1 h    0.889 --   400 o    0.831
   403   8 o    1.827 --   405 h    0.893   404 h    0.780
   404   1 h    0.869 --   403 o    0.780
   405   1 h    0.905 --   403 o    0.893
   406   8 o    1.854 --   408 h    0.819   407 h    0.783
   407   1 h    0.871 --   406 o    0.783
   408   1 h    0.890 --   406 o    0.819
   409   8 o    1.838 --   410 h    0.870   411 h    0.856
   410   1 h    0.886 --   409 o    0.870
   411   1 h    0.885 --   409 o    0.856
   412   8 o    1.833 --   413 h    0.811   414 h    0.810
   413   1 h    0.882 --   412 o    0.811
   414   1 h    0.881 --   412 o    0.810
   415   8 o    1.850 --   417 h    0.834   416 h    0.822
   416   1 h    0.887 --   415 o    0.822
   417   1 h    0.881 --   415 o    0.834
   418   8 o    1.821 --   419 h    0.892   420 h    0.818
   419   1 h    0.898 --   418 o    0.892
   420   1 h    0.881 --   418 o    0.818
   421   8 o    1.846 --   422 h    0.854   423 h    0.842
   422   1 h    0.886 --   421 o    0.854
   423   1 h    0.883 --   421 o    0.842
   424   8 o    1.837 --   425 h    0.851   426 h    0.831
   425   1 h    0.894 --   424 o    0.851
   426   1 h    0.886 --   424 o    0.831
   427   8 o    1.838 --   428 h    0.847   429 h    0.847
   428   1 h    0.886 --   427 o    0.847
   429   1 h    0.888 --   427 o    0.847
   430   8 o    1.818 --   431 h    0.827   432 h    0.811
   431   1 h    0.899 --   430 o    0.827
   432   1 h    0.877 --   430 o    0.811
   433   8 o    1.845 --   435 h    0.826   434 h    0.814
   434   1 h    0.886 --   433 o    0.814
   435   1 h    0.891 --   433 o    0.826
   436   8 o    1.796 --   438 h    0.854   437 h    0.852
   437   1 h    0.892 --   436 o    0.852
   438   1 h    0.892 --   436 o    0.854
   439   8 o    1.825 --   440 h    0.854   441 h    0.830
   440   1 h    0.893 --   439 o    0.854
   441   1 h    0.886 --   439 o    0.830
   442   8 o    1.842 --   443 h    0.878   444 h    0.774
   443   1 h    0.897 --   442 o    0.878
   444   1 h    0.867 --   442 o    0.774
   445   8 o    1.857 --   447 h    0.828   446 h    0.820
   446   1 h    0.878 --   445 o    0.820
   447   1 h    0.886 --   445 o    0.828
   448   8 o    1.841 --   449 h    0.855   450 h    0.777
   449   1 h    0.898 --   448 o    0.855
   450   1 h    0.871 --   448 o    0.777
   451   8 o    1.852 --   453 h    0.853   452 h    0.830
   452   1 h    0.870 --   451 o    0.830
   453   1 h    0.892 --   451 o    0.853
   454   8 o    1.833 --   455 h    0.841   456 h    0.823
   455   1 h    0.891 --   454 o    0.841
   456   1 h    0.889 --   454 o    0.823
   457   8 o    1.864 --   458 h    0.815   459 h    0.815
   458   1 h    0.885 --   457 o    0.815
   459   1 h    0.875 --   457 o    0.815
   460   8 o    1.841 --   462 h    0.887   461 h    0.831
   461   1 h    0.876 --   460 o    0.831
   462   1 h    0.894 --   460 o    0.887
   463   8 o    1.854 --   464 h    0.850   465 h    0.819
   464   1 h    0.892 --   463 o    0.850
   465   1 h    0.879 --   463 o    0.819
   466   8 o    1.869 --   467 h    0.896   468 h    0.809
   467   1 h    0.903 --   466 o    0.896
   468   1 h    0.879 --   466 o    0.809
   469   8 o    1.861 --   470 h    0.856   471 h    0.792
   470   1 h    0.897 --   469 o    0.856
   471   1 h    0.869 --   469 o    0.792
   472   8 o    1.848 --   474 h    0.898   473 h    0.809
   473   1 h    0.876 --   472 o    0.809
   474   1 h    0.901 --   472 o    0.898
   475   8 o    1.825 --   477 h    0.857   476 h    0.816
   476   1 h    0.876 --   475 o    0.816
   477   1 h    0.890 --   475 o    0.857
   478   8 o    1.837 --   480 h    0.856   479 h    0.834
   479   1 h    0.882 --   478 o    0.834
   480   1 h    0.892 --   478 o    0.856
   481   8 o    1.855 --   482 h    0.827   483 h    0.827
   482   1 h    0.881 --   481 o    0.827
   483   1 h    0.890 --   481 o    0.827
   484   8 o    1.879 --   485 h    0.855   486 h    0.821
   485   1 h    0.888 --   484 o    0.855
   486   1 h    0.872 --   484 o    0.821
   487   8 o    1.820 --   488 h    0.855   489 h    0.854
   488   1 h    0.888 --   487 o    0.855
   489   1 h    0.886 --   487 o    0.854
   490   8 o    1.856 --   491 h    0.816   492 h    0.806
   491   1 h    0.885 --   490 o    0.816
   492   1 h    0.876 --   490 o    0.806
   493   8 o    1.828 --   495 h    0.845   494 h    0.843
   494   1 h    0.888 --   493 o    0.843
   495   1 h    0.887 --   493 o    0.845
   496   8 o    1.814 --   498 h    0.860   497 h    0.847
   497   1 h    0.884 --   496 o    0.847
   498   1 h    0.892 --   496 o    0.860
   499   8 o    1.861 --   501 h    0.841   500 h    0.819
   500   1 h    0.876 --   499 o    0.819
   501   1 h    0.894 --   499 o    0.841
   502   8 o    1.840 --   503 h    0.846   504 h    0.825
   503   1 h    0.891 --   502 o    0.846
   504   1 h    0.885 --   502 o    0.825
   505   8 o    1.864 --   507 h    0.860   506 h    0.821
   506   1 h    0.871 --   505 o    0.821
   507   1 h    0.893 --   505 o    0.860
   508   8 o    1.888 --   509 h    0.827   510 h    0.824
   509   1 h    0.890 --   508 o    0.827
   510   1 h    0.886 --   508 o    0.824
   511   8 o    1.860 --   512 h    0.876   513 h    0.801
   512   1 h    0.895 --   511 o    0.876
   513   1 h    0.881 --   511 o    0.801
   514   8 o    1.833 --   515 h    0.850   516 h    0.827
   515   1 h    0.893 --   514 o    0.850
   516   1 h    0.888 --   514 o    0.827
   517   8 o    1.857 --   519 h    0.866   518 h    0.817
   518   1 h    0.885 --   517 o    0.817
   519   1 h    0.891 --   517 o    0.866
   520   8 o    1.852 --   521 h    0.845   522 h    0.829
   521   1 h    0.891 --   520 o    0.845
   522   1 h    0.894 --   520 o    0.829
   523   8 o    1.871 --   525 h    0.881   524 h    0.791
   524   1 h    0.869 --   523 o    0.791
   525   1 h    0.898 --   523 o    0.881
   526   8 o    1.814 --   527 h    0.865   528 h    0.847
   527   1 h    0.897 --   526 o    0.865
   528   1 h    0.888 --   526 o    0.847
   529   8 o    1.815 --   531 h    0.896   530 h    0.853
   530   1 h    0.892 --   529 o    0.853
   531   1 h    0.902 --   529 o    0.896
 ---------------------------------------------------------------------------

Topologies differ in total number of bonds
Writing topology from bond orders to xtbtopo.mol

molecular dipole:
                 x           y           z       tot (Debye)
 q only:       -1.740       0.742      -0.529
   full:       -1.634       1.331      -1.422       6.463
molecular quadrupole (traceless):
                xx          xy          yy          xz          yz          zz
 q only:       67.260       6.530     -64.822       5.949      -3.102      -2.438
  q+dip:       78.237       8.631     -84.311      -3.149     -11.676       6.075
   full:       79.197       8.344     -85.455      -4.315     -11.280       6.258


           -------------------------------------------------
          | TOTAL ENERGY             -901.400086143086 Eh   |
          | GRADIENT NORM               0.109765825504 Eh/α |
          | HOMO-LUMO GAP               7.487236266568 eV   |
           -------------------------------------------------

------------------------------------------------------------------------
 * finished run on 2022/11/17 at 06:54:58.677     
------------------------------------------------------------------------
 total:
 * wall-time:     0 d,  0 h,  0 min,  9.500 sec
 *  cpu-time:     0 d,  0 h,  0 min, 14.525 sec
 * ratio c/w:     1.529 speedup
 SCF:
 * wall-time:     0 d,  0 h,  0 min,  8.894 sec
 *  cpu-time:     0 d,  0 h,  0 min, 13.480 sec
 * ratio c/w:     1.516 speedup

