531
 energy: -901.184576665662 gnorm: 0.025186666979 xtb: 6.5.1 (579679a)
o           -0.60963882173952       -2.91159528457073       -1.50435300643049
h           -1.40531634151875       -3.43328982356961       -1.28307890645953
h           -0.01559775795285       -3.57319881458920       -1.90355545639372
o           -0.74499552578169       -6.12451214818582        0.39718251735063
h           -0.68540556561028       -5.39147410179472        1.03818777407972
h            0.15661561756969       -6.38372084153729        0.13979551643022
o            1.49555854424654        2.53422005348256       -0.14228864619893
h            2.01182317074894        1.95733987360360        0.45961053705888
h            1.06340140474092        3.19193967456132        0.40874353247783
o            3.58273758890424       -1.20076380919683       -0.23568036323436
h            3.18407074829139       -2.06989783426085       -0.35630174694348
h            4.46391519745081       -1.29702224396633       -0.62325941817604
o           -5.18698582406684        1.95308055779898        6.86166461479513
h           -4.63007123223551        2.48936615624386        6.27573965165509
h           -4.65358052425470        1.19216292089442        7.14837741919466
o            0.58385291113209       -4.77926116209407       -3.07200826978831
h            0.01708442151504       -4.65433478118455       -3.86156889173488
h            1.48931473792600       -4.67113361222594       -3.40844556637418
o           -4.51214793127635       -4.88415562886227        2.98490112546967
h           -3.88744324813444       -5.60922218149259        3.11694047211951
h           -4.41803657600749       -4.30136719963197        3.76860288146009
o            5.42591872609924       -3.32463194885020        4.30336000214707
h            5.60575942851386       -2.67227026667438        3.60766944599092
h            4.46522231422970       -3.28752907979288        4.44857579977442
o           -1.45218736227039       -4.13224170232257        2.13696561463853
h           -2.16596316954824       -3.48599604317961        2.02918084253833
h           -1.81139655684420       -4.84380395990584        2.68597954870285
o            0.49432247513836        1.94474733117221        3.00628197428612
h           -0.31022207071871        2.50426626166134        2.95079941113372
h            1.24790895202269        2.47722578567000        2.68918590670524
o           -0.38639565775155        0.29383714413883       -2.45726093152238
h           -0.41537056376339       -0.32156811856589       -3.19607038467815
h           -1.29673132679329        0.42039796949654       -2.14164239310492
o            2.52096642531195        3.61230073246147        2.62108304262336
h            2.98198673263981        3.20038838517710        3.37895602461045
h            3.21501791602013        3.78883396018303        1.95594830513305
o           -0.42113135772881        4.56683661530233       -1.83524561723122
h           -0.23344474644155        4.62965453997427       -0.88012533844451
h           -1.33757511220346        4.23972729715065       -1.90484212707437
o           -4.00154846564807        3.56170707375540        1.63933728320723
h           -4.37717109979913        2.95595649885507        2.30574854007967
h           -4.51378524692421        3.39792132775098        0.82870672571484
o           -0.47005048179001        0.39246672268817       -5.44491883363663
h           -1.27609107090815        0.42243436280765       -4.91006982765805
h           -0.47359046936167        1.20195706288614       -5.99773400464763
o           -0.27333383864064        7.04148479991177       -3.05864511512796
h           -0.34025231013258        6.17574534573261       -2.60656734057024
h           -0.03447411370157        7.66764310691864       -2.36901429140965
o           -2.87484159038081       -0.34363854331824       -4.07982905408557
h           -3.37826749977447        0.42523966454737       -3.72244935834228
h           -2.64446480765446       -0.90105743960279       -3.33156082410753
o           -0.45190446327376       -1.97321687473096       -4.02074850156666
h           -0.49478082799580       -2.66017551129675       -4.70577102751232
h           -0.87789855385114       -2.36704683279247       -3.23725538975693
o            2.73994641879599        0.80253330904319        1.47799795217574
h            3.49342028019058        1.25873329901854        1.90598094546872
h            3.11356579833270        0.13523133695383        0.88392297559230
o            4.36549514758228       -1.39278147428196        2.47473692130139
h            4.88931468888371       -0.79195125122514        1.91565197817123
h            4.43636059660754       -2.28473713702889        2.05874228579573
o           -2.59324788520627        5.84682187524884       -3.81840993113926
h           -2.30336185650091        6.74404045240776       -4.00247345436216
h           -1.91564470757216        5.28868561183138       -4.25920306454387
o            2.11624074446144       -0.16818586489608       -4.78803343268027
h            2.36836008907054        0.75979064440906       -4.93189941633312
h            1.15418631431795       -0.15788165445240       -4.92157427499079
o            4.89401483904741        1.99965635197798        2.50489161550368
h            5.52035845103761        2.26123324800956        1.81489134601971
h            5.36675235288870        1.42316926396262        3.12752756993720
o            8.23050546189807       -1.50304119655249        0.19035710743918
h            8.44886354453921       -0.55343646085385        0.05734779157946
h            9.06206626074802       -1.98957896841277        0.01723469590100
o           -4.68714154714088       -0.18638897400741        0.89812142557477
h           -5.43390186015843       -0.78943186605871        0.70066168539472
h           -4.02886306071373       -0.77363205712449        1.31904928722233
o            2.43110569274939        0.56359321281168       -1.99641815627794
h            1.82040175480823        1.26326920059778       -2.29714164027811
h            3.02697769806612        0.98217178437685       -1.34660699206565
o           -4.10737088803013       -3.30595712688303        5.10110433053476
h           -3.38964666011831       -2.69021661240943        4.86593362555323
h           -4.84314863306674       -2.78440830297081        5.47396855684138
o           -2.65102788854561       -2.03799599302070       -6.18030819800927
h           -1.80664560428498       -2.13477143014217       -6.64326718875706
h           -2.48876873489942       -1.39341342402296       -5.47076760703802
o           -5.64359915040339        2.84372445256762       -5.00562259889323
h           -5.27617385269234        2.37267428537009       -4.22252205254700
h           -6.15375295237278        2.16032326707129       -5.47059532875401
o            8.91903059211837       -3.59412814264722        3.99132017259694
h            8.66959839935992       -3.38378082306257        4.89726767964580
h            8.38163099997696       -4.35585763767610        3.71318976760105
o            5.47172194954962       -3.17497814413509       -3.68167598272497
h            5.59709547871781       -2.44464873079261       -4.31910360518636
h            4.60283066616283       -3.55605348177992       -3.91484531599198
o           -8.96165443176401       -2.96153203333794        0.36456417037700
h           -9.02652137774573       -3.87656925904350        0.07933810663919
h           -8.08985259744746       -2.87034539419804        0.79354846007709
o           -2.78052891773054        0.46271566097052       -1.25564359900490
h           -3.19701657989009       -0.39663657610097       -1.07410998754737
h           -2.69806629618145        0.92747771935155       -0.42058811567927
o           -0.26886697035532       -7.29313975516382       -2.55338650890439
h            0.14755302191052       -7.61539098816634       -1.74927602370738
h            0.11596184264162       -6.40825039766136       -2.70696925445557
o            1.80519573061900       -1.98307041351651        2.13539436838421
h            2.71162669462339       -1.60894000912735        2.12342044469537
h            1.28170199828744       -1.41511627200959        2.75225488215370
o            6.23816398864135       -5.11535656761245       -1.82150461980641
h            6.43808774789291       -4.66828879298999       -0.97586022996237
h            6.08593597316488       -4.42316862553131       -2.48455856169001
o            3.15533297465771       -0.17157460798195        4.56231956552152
h            2.20840036151123       -0.34501351609083        4.44526502008128
h            3.62632648395989       -0.54619749512555        3.79664168005882
o           -6.35294662119217       -2.22998325010848        0.43328155420165
h           -5.84989517136373       -2.95452136648818        0.82403965464825
h           -6.48278268304652       -2.49188270491038       -0.50076239344051
o            6.61917111989250        0.46261671747994       -1.97597279357505
h            7.12946996634873        1.30431063948966       -2.06869466327254
h            6.44739410842996        0.33716567701892       -1.02821458290538
o           -1.83401143394581        2.32752368685935       -4.00559869027231
h           -2.45950801221395        2.26013610151146       -4.74842109745522
h           -2.31207586789253        2.68141986502555       -3.24399645463138
o            4.36006206978638       -3.74003393291055        1.30709130073180
h            5.26645668499340       -3.86408307550156        0.96623517715550
h            3.76460730623063       -3.77690140339017        0.55091395448804
o            1.27785777084392       -1.94545215490653        6.35879650814932
h            0.35246613459915       -1.69470619947017        6.48147384646815
h            1.77026834295944       -1.14876402962097        6.62370446477216
o            4.95203459276491       -0.56648641804326        6.50532446995522
h            4.74025411751304        0.01474112123237        7.23560874690154
h            4.15548013936689       -0.55709522181446        5.93768166821936
o           -1.70992339765849       -2.05228605459480        4.43592611834781
h           -1.65770217410324       -1.63270133302290        5.31886592983141
h           -1.22067492214954       -2.89626014129339        4.52234021763048
o            0.85537267834124        2.52592019955259       -3.09477626797568
h            0.21043332827654        1.78892482482878       -3.04881763563977
h            0.45065075739007        3.25770010506019       -2.59560826768704
o           -0.39326932081350        7.54428241986362        2.32584578301461
h           -1.22992430239108        7.06533026809941        2.33861279743044
h            0.25887283078243        6.97442144113354        2.76972364073301
o           -4.40394609061488       -4.16433015464588        0.40411224370748
h           -3.58411483427652       -4.44501566060434       -0.06807058348460
h           -4.28501817494872       -4.38171580797727        1.34581269493949
o           -4.04184617800959       -0.43728943152965        4.41632280296662
h           -4.78966330542896       -0.97655443709795        4.09099915784928
h           -4.18845543680716        0.43521796932198        4.03562403648664
o            7.65031178972654        2.83323568964068       -2.44812223847051
h            6.78967063067411        3.27578248308249       -2.50290978638717
h            7.89783387366235        2.65006172463529       -3.38525176532653
o           -4.11632521909935       -0.23828071729306       -7.50453932775069
h           -3.66742288674715       -0.98783976405096       -7.04450217173179
h           -3.90793862793281       -0.32622688123382       -8.43358528415648
o           -7.57092694959150       -0.08242443505314        1.88365361914016
h           -8.30907584130837        0.12410565138591        2.48782836158667
h           -7.94119835093890       -0.30714095390441        1.00814453266748
o            2.09104560439872        0.55001318057121        7.17178737682272
h            1.75396280577257        0.63182550368129        8.06331398170965
h            1.52310914839054        1.11378499156630        6.60798975793020
o           -7.14617381939904        2.08243418419767       -2.00876223353289
h           -7.22382876179418        3.01538615244128       -2.29619724106558
h           -7.95088987563996        1.95017561266832       -1.45332383856503
o           -5.22601983684519        1.48948950830976        2.88601655384397
h           -6.01634243482164        1.99689759723354        2.61722493858172
h           -5.07746698512738        0.83230890548063        2.16498070803923
o            7.38201349031829       -2.02899521155592        5.73895711725649
h            6.92864634538078       -1.49644344016411        6.39741868326618
h            6.66928601714303       -2.54435580074215        5.31288870278573
o            8.83235579725999        1.04736460632862       -0.40373734444257
h            9.51344799737048        0.85260336149801       -1.05668247316424
h            9.28992983970737        1.46773365822790        0.35493311117013
o           -9.00780116208268        3.44051492369926        3.08827933617851
h           -9.62030072065680        4.07313664630635        2.71321784217585
h           -8.42168400796096        3.17601479193843        2.35119599926281
o            1.50896221860284        0.97283320324327       -7.65845629377106
h            0.72696423335415        1.46157045209964       -7.93121000006568
h            1.85393863279722        1.49616016649073       -6.91633448242303
o           -2.59631946922121       -5.44861554059326        5.93531488263878
h           -3.25697949792710       -4.74766933672520        5.81413890588130
h           -1.73629853321154       -4.99912454969604        5.90911315166999
o            4.18310137700390        4.20760640123078        0.63414447026587
h            5.04692346156119        4.61377789084712        0.45241113642683
h            4.17347938639684        3.34823039666124        0.17832949835505
o           -4.50847267221711        1.47268624546849       -3.07783033704803
h           -4.04226714207027        1.94295310673840       -2.36787944811513
h           -5.12025742015735        0.83313202550461       -2.65000793603985
o           -6.22097904813600        3.94943663428268        3.64390091872973
h           -6.19779060908703        4.43540875849589        2.80462007649575
h           -7.15165650989054        3.85904390636910        3.87181909278393
o           -4.83460586775929        5.05050849952872       -0.99682111321785
h           -5.19356151915679        5.11026075388498       -1.90964831432852
h           -4.15479665353041        5.73924893552942       -0.93668301539755
o           -5.13667429773437        2.19161717886810       -0.34760841515007
h           -4.93818766454919        1.29226032680767       -0.03987288490079
h           -5.81687161212784        2.10724548029616       -1.05255135444746
o            5.94759378369946       -0.03060580046043        0.73492028551648
h            6.26203180952733       -0.90321321750252        0.47793519695845
h            6.66383449734883        0.36794493726315        1.28795986480679
o            3.67660410579522        7.14155611462727        2.55095914902973
h            3.97923427911828        8.04728831069604        2.60562582945769
h            4.47071138022072        6.57527503826551        2.63603006453675
o            2.49113541307978       -3.67548280719941       -0.85617865356652
h            2.16131515027943       -3.11301325068392       -1.58730221033457
h            2.89567784484753       -4.45683760310751       -1.29025221159427
o           -0.05731105968266        4.60979421711688        0.87856424268965
h           -0.79817387334789        5.04789195977167        1.33579679976855
h            0.71155466598425        5.20846297647386        0.91967882977491
o           -1.31446487574802       -0.73085583699352        6.72006883023151
h           -2.15918776387692       -0.80192789539933        7.19265207968697
h           -1.41536095468713        0.07991900058551        6.18654529243075
o           -3.44898164981346       -2.19027230299276        2.20240303506729
h           -2.93791401192917       -1.79427860773213        2.92374840044334
h           -4.34457534512311       -2.33269368807948        2.55025441389502
o            5.45555057265015       -1.03318204584442       -5.30945913620380
h            4.81490604348741       -1.09321537597462       -6.04733543144583
h            5.09872352395523       -0.33516411970450       -4.72337490687906
o           -5.97795709158278       -1.83230568210432        3.16530501073240
h           -6.52328724998866       -1.20960786547634        2.63939071482531
h           -6.59861965319952       -2.42997155905453        3.59124600571477
o            1.90872367961441       -2.00201527845887       -2.81233675627967
h            2.21735321078054       -1.08577283586536       -2.73309775993142
h            1.05873436827353       -1.94556579749590       -3.30526021944770
o            3.33638210986016       -1.07257820948954       -6.92238736306112
h            3.05180025336282       -0.43597120905204       -7.58533394955477
h            2.83532775324688       -0.80011422256793       -6.10516581098082
o           -8.24362409038079        0.64548669531359       -3.99359119008624
h           -7.68394153360637        1.06029507112913       -3.30105381943796
h           -7.73063860817410        0.63876283823744       -4.81224687093403
o            8.29701813202705       -1.36234711340517       -2.95552368169530
h            7.65266229230844       -0.71510626015472       -2.58544228463018
h            8.30380846199699       -1.18582570288279       -3.91161368099184
o            5.87894156296929       -2.12242805148740       -1.25474901228783
h            5.68935296545866       -2.42692555303704       -2.16096859761158
h            6.83481535738583       -2.02687743325204       -1.18524627483619
o           -8.80741333747394       -1.87786055227752       -3.33906268611139
h           -8.52838455396177       -0.97388347174575       -3.61632720358756
h           -9.65529989170984       -1.72964616032839       -2.89752052077641
o            0.53081625075246       -0.56987730832864        3.89912522685050
h            0.37458882174695        0.31466891020594        3.52077505575277
h           -0.33586103403978       -0.99829040248142        4.02926579137670
o            4.57617205493623        0.87708465672660       -3.59376711518080
h            5.29393988144360        0.62706899072214       -2.96886396615746
h            3.72854328207650        0.64933771115614       -3.15215021995287
o           -0.29316558360078        4.83240138616393        5.15227272018721
h            0.40856703509461        5.32060901086949        4.68103865320681
h            0.12212246046995        4.04325737647865        5.53545219113697
o            3.90871652096072        4.54643881189484       -5.21790491339823
h            3.22131355883577        5.16090373258658       -4.90501634942722
h            4.38419889074670        4.26477683062657       -4.41526703606474
o            1.36900876558746       -4.52054223429748        1.41740643569713
h            1.40596797835858       -3.62944721007050        1.79910727918410
h            1.53270483250040       -4.38469133920147        0.47004622589075
o           -8.27901754839706       -0.47614136832485       -0.69170227412586
h           -8.48418411006211       -1.41337050437161       -0.55992075775241
h           -7.45404436473579       -0.44019672795976       -1.21544222403462
o           -7.83960736626404        4.59814008939802       -2.61791252701798
h           -7.28438827027586        5.07484074967117       -3.24085355002334
h           -8.60052982886788        4.20740686154929       -3.09932593015370
o           -0.04873105557902        7.46225653407388       -0.33151415934297
h            0.80134144965380        7.00274500320567       -0.32819405615116
h           -0.19021198045256        7.71573938145644        0.60278411217540
o            7.95312731093226        0.90000099950071        2.15056147017720
h            8.37653664334952        0.45213938675194        2.90382736919149
h            7.97494510300796        1.84721597822072        2.33133821360536
o           10.60717082059764       -0.55081473259680       -1.95121707497196
h           11.16902349817083       -0.30655356285893       -2.68571543782747
h            9.75921963496811       -0.89186960695509       -2.33920986047482
o            5.97144197938710        5.76172522274407        2.62713448726236
h            6.15471361718359        5.97315651222802        1.69730017822939
h            6.55582969326962        4.99858293534639        2.78439540067206
o            6.64343786774159        2.67721964531562        0.37057944831855
h            7.06220960798884        3.32810846732789        0.94500921972473
h            7.36973603105754        2.14508993208484        0.02037538790958
o            1.70002640267635       -6.99553315847513       -0.42994907251081
h            2.32525565676961       -6.67081918700096       -1.09211893847661
h            2.21333418375326       -7.09495075055120        0.38522853065982
o            7.18176905519677       -1.84685345865449        2.71518774499272
h            7.79331941275883       -2.42030865055096        3.20654976020564
h            7.66826638776059       -1.57761148833395        1.91952572271211
o            3.21807499383671       -6.46168488260361        1.82260506190429
h            2.78472809544133       -5.59916303612632        1.67439110055513
h            3.26311705975782       -6.54478516949388        2.78578896044281
o          -11.15731179895757       -1.45112271286919        0.70159044370850
h          -10.41417412590346       -2.07954669206593        0.63472048431246
h          -11.33758623733230       -1.19679201876529       -0.21736697773308
o           -6.25781626091834       -1.88875580666690        6.02276415922545
h           -6.42766594825993       -0.97382624685131        5.70792809843516
h           -7.00291509379012       -2.40951038125250        5.70600506521376
o           -7.75438300377111       -5.39458459420651       -0.45568795652278
h           -7.51367373880323       -5.19147793465017        0.46882017240405
h           -7.11475230671401       -6.06860948547208       -0.72324117839960
o           -0.64314067833142       -4.27541883943938       -5.40116849819551
h           -1.53182112408189       -4.69751863037825       -5.51035949616483
h           -0.09269104360040       -4.56612459576814       -6.12901110356842
o            6.92505082571395       -4.00046072614909        0.56310021035706
h            7.40869162624348       -3.16731589984564        0.52868382145041
h            7.14550334606140       -4.43475100185708        1.41444147407226
o           -5.35852004995215       -1.47754122661812       -4.50438178959646
h           -5.36895417438431       -2.38536007479305       -4.88226065803800
h           -4.42824314996057       -1.19283699403201       -4.48545144115288
o           -5.21175582786853       -6.47697352098543       -0.71416068964230
h           -4.57510600373508       -7.05857567112597       -0.26986750136263
h           -5.09031190713579       -5.62371616934837       -0.24648687343176
o            9.22718378752914       -0.42670882551140        4.17190585214272
h            9.75216736072246       -1.03302196235928        3.63437757591326
h            8.66823546778669       -0.96072439286706        4.75854468951640
o            3.00343476845037       -5.97339126840629        4.52463461171781
h            3.64319232709545       -6.19041114567204        5.20138526103100
h            2.91662537120401       -4.99652238283708        4.51741555318744
o           -7.04735202116756       -4.55375052921619        2.02879449727460
h           -6.17677810003683       -4.81691979630028        2.36892942991787
h           -7.53634674070005       -4.20828244556776        2.78860213908163
o           -3.84508425066433       -1.98500106683736       -1.17930081128799
h           -4.05849511576469       -2.66232359849738       -0.51584742074135
h           -3.50811190122777       -2.45738030211162       -1.96032619492682
o           -8.14609054052948       -3.30110323633324        4.28070374644886
h           -8.86144966556064       -2.69100320443651        3.96733374262254
h           -8.58560522805269       -3.96059350954799        4.81793221180645
o            8.88185348966755       -4.03162888755705       -2.29997364241497
h            8.13579246878487       -4.63805763099477       -2.21392226089869
h            8.54315322919115       -3.19488138808826       -2.65352449391373
o            5.36194068243470        4.24251270459220        5.20849110397145
h            5.36625910243412        4.84393039829439        4.45842296526077
h            4.64157751496808        3.60411501422090        5.05873007926590
o           -6.67316902768324        0.63772848243343        5.12297165980572
h           -6.28659121474872        1.19013678728272        5.84257990724270
h           -6.19415909602406        0.89910501888376        4.31666208301292
o           -1.89116863904277        2.42379311752753        0.64313048803202
h           -2.62413050594091        2.88001743210019        1.12685364065373
h           -1.11398390134805        2.97823890688785        0.78735667045131
o          -10.70908926594204       -0.43265092946006       -1.85147851622507
h           -9.84932697220842       -0.18193526992069       -1.45161763232330
h          -11.06273772373178        0.36615590812927       -2.24327772847531
o          -10.08034826747505       -1.69170849454817        3.52212079552790
h           -9.86187080444483       -0.76740483930245        3.73515709796292
h          -10.59139008046209       -1.68527366024516        2.70740433051515
o           -9.78329199263483        2.91891306409171       -3.41671878380675
h           -9.38046799370752        2.13029225815755       -3.81381524426539
h           -9.90137334427980        2.69966649163285       -2.47847908265423
o            8.04773051285545       -0.59670240733984       -5.53806236199493
h            7.06753621649463       -0.72657443639076       -5.54806712676675
h            8.37496523689527       -0.89667067370958       -6.38518954880065
o           -2.32267555960872       -6.46685841312405        3.50473134004127
h           -1.38333984415761       -6.67974329957330        3.42310748251431
h           -2.45348676037288       -6.24925031861268        4.45928766838029
o           -2.39792236532802       -4.79981407808754       -1.11608507605282
h           -2.65070027137562       -5.35562926922058       -1.87740306301983
h           -1.75952663815655       -5.34173075831002       -0.59877904864721
o           -2.51004319332555        6.46089890907673       -1.03667338662023
h           -2.47931355117665        6.24223735806335       -1.98417124881422
h           -1.65992908049681        6.90266530179074       -0.84595928761428
o            4.99231003492788        3.47286124909828       -2.93138809203457
h            4.83370655494308        2.56830360452038       -3.27198772243460
h            4.16203829375844        3.71052220824876       -2.41658290249664
o            1.94276423265588       -3.37612406657311       -6.57527082796546
h            1.12270190603897       -2.85329320117961       -6.66056511685209
h            2.63025912607222       -2.75574414593012       -6.87024603989886
o           -3.14224800727125       -7.39065288571707        0.85601402918156
h           -3.14149536954112       -7.39694129843370        1.81742228278493
h           -2.25451607243284       -7.08034718950632        0.61434940870238
o            5.39249518589990        2.20903864695180       -6.00287053727134
h            4.86233999258625        1.74937736909786       -5.33966605100129
h            4.97028234687157        3.06059410384702       -6.15130962049953
o           10.41147729015377       -2.92096336030158       -0.43262168256271
h            9.94795070655852       -3.52709078536697       -1.04962515491889
h           10.85626679088728       -2.27477851455296       -0.99560345653098
o           -4.99561280212186       -4.80201060788354       -2.84277230745593
h           -5.66074105371305       -4.17357639528803       -2.49507885241415
h           -5.01066605262487       -5.56148612262156       -2.23508057223601
o           -8.77213231074717        4.71519828683783        0.01829928880247
h           -7.96619000052013        4.80426139487462        0.55356966364166
h           -8.50220217629054        4.91687874092668       -0.88962709606275
o           -6.41351341867294        0.42685852529716       -6.02366978764150
h           -6.05714587353554       -0.29511081892039       -5.45406856778738
h           -5.91609736752172        0.33111242128045       -6.84281506774388
o           -3.97599162791916       -0.51738638019855        7.07236016404725
h           -3.98157051670132       -0.48604359340615        6.08439770550740
h           -4.70955267026144       -1.09187409459899        7.30610605146082
o          -10.20002987917126        0.90275221074517        1.44776615418042
h          -10.83051706687646        1.34247497504886        2.01601343276037
h          -10.58802185617441        0.03427286292029        1.19572930146364
o            1.98097300181099        5.82864660423548       -3.82997498916606
h            1.16148000644107        6.35340128005030       -3.86575641404666
h            2.54128674122689        6.35592502451616       -3.21222994687880
o            7.80193390235969        3.72937660009940        2.66457785068848
h            8.68587321995022        4.09512177996658        2.60815551722287