      -----------------------------------------------------------      
     |                   =====================                   |     
     |                           x T B                           |     
     |                   =====================                   |     
     |                         S. Grimme                         |     
     |          Mulliken Center for Theoretical Chemistry        |     
     |                    University of Bonn                     |     
      -----------------------------------------------------------      

   * xtb version 6.5.1 (579679a) compiled by 'ehlert@majestix' on 2022-07-11

   xtb is free software: you can redistribute it and/or modify it under
   the terms of the GNU Lesser General Public License as published by
   the Free Software Foundation, either version 3 of the License, or
   (at your option) any later version.
   
   xtb is distributed in the hope that it will be useful,
   but WITHOUT ANY WARRANTY; without even the implied warranty of
   MERCHANTABILITY or FITNESS FOR A PARTICULAR PURPOSE.  See the
   GNU Lesser General Public License for more details.
   
   Cite this work as:
   * C. Bannwarth, E. Caldeweyher, S. Ehlert, A. Hansen, P. Pracht,
     J. Seibert, S. Spicher, S. Grimme, WIREs Comput. Mol. Sci., 2020, 11,
     e01493. DOI: 10.1002/wcms.1493
   
   for GFN2-xTB:
   * C. Bannwarth, S. Ehlert and S. Grimme., J. Chem. Theory Comput., 2019,
     15, 1652-1671. DOI: 10.1021/acs.jctc.8b01176
   for GFN1-xTB:
   * S. Grimme, C. Bannwarth, P. Shushkov, J. Chem. Theory Comput., 2017,
     13, 1989-2009. DOI: 10.1021/acs.jctc.7b00118
   for GFN0-xTB:
   * P. Pracht, E. Caldeweyher, S. Ehlert, S. Grimme, ChemRxiv, 2019, preprint.
     DOI: 10.26434/chemrxiv.8326202.v1
   for GFN-FF:
   * S. Spicher and S. Grimme, Angew. Chem. Int. Ed., 2020, 59, 15665-15673.
     DOI: 10.1002/anie.202004239
   
   for ALPB and GBSA implicit solvation:
   * S. Ehlert, M. Stahn, S. Spicher, S. Grimme, J. Chem. Theory Comput.,
     2021, 17, 4250-4261. DOI: 10.1021/acs.jctc.1c00471
   
   for DFT-D4:
   * E. Caldeweyher, C. Bannwarth and S. Grimme, J. Chem. Phys., 2017,
     147, 034112. DOI: 10.1063/1.4993215
   * E. Caldeweyher, S. Ehlert, A. Hansen, H. Neugebauer, S. Spicher,
     C. Bannwarth and S. Grimme, J. Chem. Phys., 2019, 150, 154122.
     DOI: 10.1063/1.5090222
   * E. Caldeweyher, J.-M. Mewes, S. Ehlert and S. Grimme, Phys. Chem. Chem. Phys.
     2020, 22, 8499-8512. DOI: 10.1039/D0CP00502A
   
   for sTDA-xTB:
   * S. Grimme and C. Bannwarth, J. Chem. Phys., 2016, 145, 054103.
     DOI: 10.1063/1.4959605
   
   in the mass-spec context:
   * V. Asgeirsson, C. Bauer and S. Grimme, Chem. Sci., 2017, 8, 4879.
     DOI: 10.1039/c7sc00601b
   * J. Koopman and S. Grimme, ACS Omega 2019, 4, 12, 15120-15133.
     DOI: 10.1021/acsomega.9b02011
   
   for metadynamics refer to:
   * S. Grimme, J. Chem. Theory Comput., 2019, 155, 2847-2862
     DOI: 10.1021/acs.jctc.9b00143
   
   for SPH calculations refer to:
   * S. Spicher and S. Grimme, J. Chem. Theory Comput., 2021, 17, 1701-1714
     DOI: 10.1021/acs.jctc.0c01306
   
   with help from (in alphabetical order)
   P. Atkinson, C. Bannwarth, F. Bohle, G. Brandenburg, E. Caldeweyher
   M. Checinski, S. Dohm, S. Ehlert, S. Ehrlich, I. Gerasimov, C. Hölzer
   A. Katbashev, J. Koopman, C. Lavigne, S. Lehtola, F. März, M. Müller,
   F. Musil, H. Neugebauer, J. Pisarek, C. Plett, P. Pracht, F. Pultar,
   J. Seibert, P. Shushkov, S. Spicher, M. Stahn, M. Steiner, T. Strunk,
   J. Stückrath, T. Rose, and J. Unsleber
   
 * started run on 2022/11/24 at 09:27:46.531     

           -------------------------------------------------
          |                Calculation Setup                |
           -------------------------------------------------

          program call               : xtb xtbopt.coord --gfn2 --sp --gbsa water
          hostname                   : cn0341
          coordinate file            : xtbopt.coord
          omp threads                :                     2

   ID    Z sym.   atoms
    1    8 o      1, 4, 7, 10, 13, 16, 19, 22, 25, 28, 31, 34, 37, 40, 43,
                  46, 49, 52, 55, 58, 61, 64, 67, 70, 73, 76, 79, 82, 85, 88,
                  91, 94, 97, 100, 103, 106, 109, 112, 115, 118, 121, 124,
                  127, 130, 133, 136, 139, 142, 145, 148, 151, 154, 157, 160,
                  163, 166, 169, 172, 175, 178, 181, 184, 187, 190, 193, 196,
                  199, 202, 205, 208, 211, 214, 217, 220, 223, 226, 229, 232,
                  235, 238, 241, 244, 247, 250, 253, 256, 259, 262, 265, 268,
                  271, 274, 277, 280, 283, 286, 289, 292, 295, 298, 301, 304,
                  307, 310, 313, 316, 319, 322, 325, 328, 331, 334, 337, 340,
                  343, 346, 349, 352, 355, 358, 361, 364, 367, 370, 373, 376,
                  379, 382, 385, 388, 391, 394, 397, 400, 403, 406, 409, 412,
                  415, 418, 421, 424, 427, 430, 433, 436, 439, 442, 445, 448,
                  451, 454, 457, 460, 463, 466, 469, 472, 475, 478, 481, 484,
                  487, 490, 493, 496, 499, 502, 505, 508, 511, 514, 517, 520,
                  523, 526, 529, 532, 535, 538, 541, 544, 547, 550, 553, 556,
                  559, 562, 565, 568, 571, 574, 577, 580, 583, 586, 589, 592,
                  595, 598, 601, 604, 607, 610, 613, 616, 619, 622, 625, 628,
                  631, 634, 637, 640, 643, 646, 649, 652, 655, 658, 661, 664,
                  667, 670, 673, 676, 679, 682, 685, 688, 691, 694, 697, 700,
                  703, 706, 709, 712, 715, 718, 721, 724, 727, 730, 733, 736,
                  739, 742, 745, 748, 751, 754
    2    1 h      2, 3, 5, 6, 8, 9, 11, 12, 14, 15, 17, 18, 20, 21, 23, 24,
                  26, 27, 29, 30, 32, 33, 35, 36, 38, 39, 41, 42, 44, 45, 47,
                  48, 50, 51, 53, 54, 56, 57, 59, 60, 62, 63, 65, 66, 68, 69,
                  71, 72, 74, 75, 77, 78, 80, 81, 83, 84, 86, 87, 89, 90, 92,
                  93, 95, 96, 98, 99, 101, 102, 104, 105, 107, 108, 110, 111,
                  113, 114, 116, 117, 119, 120, 122, 123, 125, 126, 128, 129,
                  131, 132, 134, 135, 137, 138, 140, 141, 143, 144, 146, 147,
                  149, 150, 152, 153, 155, 156, 158, 159, 161, 162, 164, 165,
                  167, 168, 170, 171, 173, 174, 176, 177, 179, 180, 182, 183,
                  185, 186, 188, 189, 191, 192, 194, 195, 197, 198, 200, 201,
                  203, 204, 206, 207, 209, 210, 212, 213, 215, 216, 218, 219,
                  221, 222, 224, 225, 227, 228, 230, 231, 233, 234, 236, 237,
                  239, 240, 242, 243, 245, 246, 248, 249, 251, 252, 254, 255,
                  257, 258, 260, 261, 263, 264, 266, 267, 269, 270, 272, 273,
                  275, 276, 278, 279, 281, 282, 284, 285, 287, 288, 290, 291,
                  293, 294, 296, 297, 299, 300, 302, 303, 305, 306, 308, 309,
                  311, 312, 314, 315, 317, 318, 320, 321, 323, 324, 326, 327,
                  329, 330, 332, 333, 335, 336, 338, 339, 341, 342, 344, 345,
                  347, 348, 350, 351, 353, 354, 356, 357, 359, 360, 362, 363,
                  365, 366, 368, 369, 371, 372, 374, 375, 377, 378, 380, 381,
                  383, 384, 386, 387, 389, 390, 392, 393, 395, 396, 398, 399,
                  401, 402, 404, 405, 407, 408, 410, 411, 413, 414, 416, 417,
                  419, 420, 422, 423, 425, 426, 428, 429, 431, 432, 434, 435,
                  437, 438, 440, 441, 443, 444, 446, 447, 449, 450, 452, 453,
                  455, 456, 458, 459, 461, 462, 464, 465, 467, 468, 470, 471,
                  473, 474, 476, 477, 479, 480, 482, 483, 485, 486, 488, 489,
                  491, 492, 494, 495, 497, 498, 500, 501, 503, 504, 506, 507,
                  509, 510, 512, 513, 515, 516, 518, 519, 521, 522, 524, 525,
                  527, 528, 530, 531, 533, 534, 536, 537, 539, 540, 542, 543,
                  545, 546, 548, 549, 551, 552, 554, 555, 557, 558, 560, 561,
                  563, 564, 566, 567, 569, 570, 572, 573, 575, 576, 578, 579,
                  581, 582, 584, 585, 587, 588, 590, 591, 593, 594, 596, 597,
                  599, 600, 602, 603, 605, 606, 608, 609, 611, 612, 614, 615,
                  617, 618, 620, 621, 623, 624, 626, 627, 629, 630, 632, 633,
                  635, 636, 638, 639, 641, 642, 644, 645, 647, 648, 650, 651,
                  653, 654, 656, 657, 659, 660, 662, 663, 665, 666, 668, 669,
                  671, 672, 674, 675, 677, 678, 680, 681, 683, 684, 686, 687,
                  689, 690, 692, 693, 695, 696, 698, 699, 701, 702, 704, 705,
                  707, 708, 710, 711, 713, 714, 716, 717, 719, 720, 722, 723,
                  725, 726, 728, 729, 731, 732, 734, 735, 737, 738, 740, 741,
                  743, 744, 746, 747, 749, 750, 752, 753, 755, 756

molecular fragmentation (1/2 indicates fragments):
111222222222222222222222222222222222222222222222222222222222222222222222
222222222222222222222222222222222222222222222222222222222222222222222222
222222222222222222222222222222222222222222222222222222222222222222222222
222222222222222222222222222222222222222222222222222222222222222222222222
222222222222222222222222222222222222222222222222222222222222222222222222
222222222222222222222222222222222222222222222222222222222222222222222222
222222222222222222222222222222222222222222222222222222222222222222222222
222222222222222222222222222222222222222222222222222222222222222222222222
222222222222222222222222222222222222222222222222222222222222222222222222
222222222222222222222222222222222222222222222222222222222222222222222222
222222222222222222222222222222222222
# atoms in fragment 1/2:     3   753
 fragment masses (1/2) :       18.02     4521.84
CMA distance (Bohr)    :  15.574
constraining FC (au)   :  0.0500

           -------------------------------------------------
          |                 G F N 2 - x T B                 |
           -------------------------------------------------

        Reference                      10.1021/acs.jctc.8b01176
      * Hamiltonian:
        H0-scaling (s, p, d)           1.850000    2.230000    2.230000
        zeta-weighting                 0.500000
      * Dispersion:
        s8                             2.700000
        a1                             0.520000
        a2                             5.000000
        s9                             5.000000
      * Repulsion:
        kExp                           1.500000    1.000000
        rExp                           1.000000
      * Coulomb:
        alpha                          2.000000
        third order                    shell-resolved
        anisotropic                    true
        a3                             3.000000
        a5                             4.000000
        cn-shift                       1.200000
        cn-exp                         4.000000
        max-rad                        5.000000

      * Solvation model:               GBSA
        Solvent                        water
        Parameter file                 internal GFN2-xTB/GBSA
        Dielectric constant                8.0200E+01
        Reference state                gsolv [1 M gas/solution]
        Free energy shift                  1.8574E-03 Eh       1.1656E+00 kcal/mol
        Temperature                        2.9815E+02 K
        Density                            1.0000E+00 kg/L
        Solvent mass                       1.8000E+01 g/mol
        Interaction kernel             Still
        Born radius scaling (c1)           1.5524E+00
        Born radii integrator          GBOBC
        Born offset                        2.4628E-02 a0       4.6540E-02 AA
        H-bond correction              true
        Ion screening                  false
        Surface tension                    1.0000E-05 Eh       1.5569E+01 dyn/cm
        Grid points                               230 per atom

          ...................................................
          :                      SETUP                      :
          :.................................................:
          :  # basis functions                1512          :
          :  # atomic orbitals                1512          :
          :  # shells                         1008          :
          :  # electrons                      2016          :
          :  max. iterations                   250          :
          :  Hamiltonian                  GFN2-xTB          :
          :  restarted?                      false          :
          :  GBSA solvation                   true          :
          :  PC potential                    false          :
          :  electronic temp.          300.0000000     K    :
          :  accuracy                    1.0000000          :
          :  -> integral cutoff          0.2500000E+02      :
          :  -> integral neglect         0.1000000E-07      :
          :  -> SCF convergence          0.1000000E-05 Eh   :
          :  -> wf. convergence          0.1000000E-03 e    :
          :  Broyden damping             0.4000000          :
          ...................................................

 iter      E             dE          RMSdq      gap      omega  full diag
   1  -1291.2609518 -0.129126E+04  0.408E+00    8.31       0.0  T
   2  -1291.3420500 -0.810981E-01  0.242E+00    8.21       1.0  T
   3  -1291.3775126 -0.354626E-01  0.223E-01    7.80       1.0  T
   4  -1291.3828513 -0.533874E-02  0.479E-02    7.94       1.0  T
   5  -1291.3830070 -0.155668E-03  0.308E-02    7.90       1.0  T
   6  -1291.3830582 -0.512293E-04  0.390E-03    7.90       1.0  T
   7  -1291.3830601 -0.181459E-05  0.101E-03    7.90       3.6  T
   8  -1291.3830602 -0.152298E-06  0.467E-04    7.90       7.8  T
   9  -1291.3830602 -0.410332E-07  0.145E-04    7.90      25.0  T

   *** convergence criteria satisfied after 9 iterations ***

         #    Occupation            Energy/Eh            Energy/eV
      -------------------------------------------------------------
         1        2.0000           -0.6545600             -17.8115
       ...           ...                  ...                  ...
      1002        2.0000           -0.3566212              -9.7042
      1003        2.0000           -0.3557925              -9.6816
      1004        2.0000           -0.3557850              -9.6814
      1005        2.0000           -0.3549768              -9.6594
      1006        2.0000           -0.3531242              -9.6090
      1007        2.0000           -0.3492735              -9.5042
      1008        2.0000           -0.3466964              -9.4341 (HOMO)
      1009                         -0.0563685              -1.5339 (LUMO)
      1010                         -0.0479752              -1.3055
      1011                         -0.0371378              -1.0106
      1012                         -0.0362559              -0.9866
      1013                         -0.0308156              -0.8385
       ...                                ...                  ...
      1512                          0.4796671              13.0524
      -------------------------------------------------------------
                  HL-Gap            0.2903279 Eh            7.9002 eV
             Fermi-level           -0.2015324 Eh           -5.4840 eV

 SCC (total)                   0 d,  0 h,  0 min, 20.193 sec
 SCC setup                      ...        0 min,  0.117 sec (  0.579%)
 Dispersion                     ...        0 min,  0.109 sec (  0.542%)
 classical contributions        ...        0 min,  0.023 sec (  0.115%)
 integral evaluation            ...        0 min,  0.603 sec (  2.987%)
 iterations                     ...        0 min,  6.849 sec ( 33.920%)
 molecular gradient             ...        0 min, 12.423 sec ( 61.522%)
 printout                       ...        0 min,  0.068 sec (  0.334%)

         :::::::::::::::::::::::::::::::::::::::::::::::::::::
         ::                     SUMMARY                     ::
         :::::::::::::::::::::::::::::::::::::::::::::::::::::
         :: total energy           -1283.607038456718 Eh    ::
         :: total w/o Gsasa/hb     -1283.385559571181 Eh    ::
         :: gradient norm              0.107747708684 Eh/a0 ::
         :: HOMO-LUMO gap              7.900223958274 eV    ::
         ::.................................................::
         :: SCC energy             -1291.383060245308 Eh    ::
         :: -> isotropic ES            7.349818124107 Eh    ::
         :: -> anisotropic ES         -1.655395383360 Eh    ::
         :: -> anisotropic XC         -0.119783048484 Eh    ::
         :: -> dispersion             -0.795532188330 Eh    ::
         :: -> Gsolv                  -0.277553310690 Eh    ::
         ::    -> Gelec               -0.056074425154 Eh    ::
         ::    -> Gsasa                0.007454974454 Eh    ::
         ::    -> Ghb                 -0.230791303117 Eh    ::
         ::    -> Gshift               0.001857443127 Eh    ::
         :: repulsion energy           7.618788975592 Eh    ::
         :: add. restraining           0.000000000000 Eh    ::
         :: total charge              -0.000000000000 e     ::
         :::::::::::::::::::::::::::::::::::::::::::::::::::::

           -------------------------------------------------
          |                Property Printout                |
           -------------------------------------------------

    * Orbital Energies and Occupations

         #    Occupation            Energy/Eh            Energy/eV
      -------------------------------------------------------------
         1        2.0000           -0.6545600             -17.8115
       ...           ...                  ...                  ...
       996        2.0000           -0.3597787              -9.7901
       997        2.0000           -0.3591932              -9.7741
       998        2.0000           -0.3588551              -9.7649
       999        2.0000           -0.3576839              -9.7331
      1000        2.0000           -0.3576504              -9.7322
      1001        2.0000           -0.3571360              -9.7182
      1002        2.0000           -0.3566212              -9.7042
      1003        2.0000           -0.3557925              -9.6816
      1004        2.0000           -0.3557850              -9.6814
      1005        2.0000           -0.3549768              -9.6594
      1006        2.0000           -0.3531242              -9.6090
      1007        2.0000           -0.3492735              -9.5042
      1008        2.0000           -0.3466964              -9.4341 (HOMO)
      1009                         -0.0563685              -1.5339 (LUMO)
      1010                         -0.0479752              -1.3055
      1011                         -0.0371378              -1.0106
      1012                         -0.0362559              -0.9866
      1013                         -0.0308156              -0.8385
      1014                         -0.0217172              -0.5910
      1015                         -0.0206011              -0.5606
      1016                         -0.0125477              -0.3414
      1017                         -0.0107334              -0.2921
      1018                         -0.0073936              -0.2012
      1019                         -0.0038959              -0.1060
       ...                                ...                  ...
      1512                          0.4796671              13.0524
      -------------------------------------------------------------
                  HL-Gap            0.2903279 Eh            7.9002 eV
             Fermi-level           -0.2015324 Eh           -5.4840 eV

     #   Z          covCN         q      C6AA      α(0)
     1   8 o        1.608    -0.671    26.945     7.006
     2   1 h        0.803     0.352     0.584     1.201
     3   1 h        0.806     0.310     0.693     1.307
     4   8 o        1.607    -0.686    27.350     7.058
     5   1 h        0.803     0.358     0.570     1.186
     6   1 h        0.805     0.337     0.619     1.236
     7   8 o        1.606    -0.697    27.634     7.095
     8   1 h        0.803     0.339     0.614     1.231
     9   1 h        0.803     0.355     0.577     1.193
    10   8 o        1.607    -0.695    27.577     7.087
    11   1 h        0.804     0.352     0.583     1.199
    12   1 h        0.803     0.344     0.604     1.220
    13   8 o        1.607    -0.699    27.679     7.101
    14   1 h        0.803     0.358     0.571     1.187
    15   1 h        0.802     0.358     0.570     1.186
    16   8 o        1.606    -0.686    27.334     7.056
    17   1 h        0.803     0.326     0.649     1.266
    18   1 h        0.803     0.353     0.580     1.197
    19   8 o        1.608    -0.674    27.030     7.017
    20   1 h        0.805     0.344     0.602     1.219
    21   1 h        0.803     0.350     0.588     1.205
    22   8 o        1.607    -0.690    27.455     7.072
    23   1 h        0.805     0.329     0.640     1.257
    24   1 h        0.803     0.351     0.587     1.203
    25   8 o        1.607    -0.695    27.589     7.089
    26   1 h        0.804     0.345     0.600     1.216
    27   1 h        0.803     0.359     0.568     1.184
    28   8 o        1.609    -0.696    27.599     7.090
    29   1 h        0.804     0.349     0.589     1.206
    30   1 h        0.804     0.340     0.613     1.230
    31   8 o        1.608    -0.687    27.362     7.060
    32   1 h        0.804     0.341     0.610     1.227
    33   1 h        0.803     0.352     0.585     1.201
    34   8 o        1.608    -0.683    27.273     7.048
    35   1 h        0.804     0.347     0.594     1.211
    36   1 h        0.803     0.344     0.603     1.220
    37   8 o        1.607    -0.680    27.180     7.036
    38   1 h        0.803     0.335     0.624     1.241
    39   1 h        0.804     0.330     0.636     1.253
    40   8 o        1.609    -0.660    26.679     6.971
    41   1 h        0.805     0.344     0.602     1.219
    42   1 h        0.804     0.348     0.593     1.209
    43   8 o        1.608    -0.667    26.854     6.994
    44   1 h        0.804     0.347     0.595     1.211
    45   1 h        0.803     0.339     0.615     1.232
    46   8 o        1.607    -0.679    27.156     7.033
    47   1 h        0.803     0.343     0.606     1.223
    48   1 h        0.805     0.364     0.556     1.171
    49   8 o        1.607    -0.692    27.498     7.077
    50   1 h        0.805     0.339     0.614     1.231
    51   1 h        0.805     0.354     0.579     1.195
    52   8 o        1.609    -0.662    26.708     6.975
    53   1 h        0.805     0.324     0.652     1.269
    54   1 h        0.804     0.341     0.609     1.225
    55   8 o        1.606    -0.701    27.739     7.108
    56   1 h        0.803     0.350     0.588     1.205
    57   1 h        0.803     0.355     0.576     1.192
    58   8 o        1.609    -0.670    26.929     7.004
    59   1 h        0.805     0.312     0.686     1.301
    60   1 h        0.804     0.344     0.603     1.220
    61   8 o        1.608    -0.687    27.366     7.060
    62   1 h        0.804     0.355     0.577     1.194
    63   1 h        0.804     0.331     0.634     1.251
    64   8 o        1.607    -0.689    27.413     7.066
    65   1 h        0.804     0.332     0.632     1.249
    66   1 h        0.803     0.370     0.543     1.157
    67   8 o        1.606    -0.716    28.134     7.159
    68   1 h        0.804     0.345     0.601     1.218
    69   1 h        0.804     0.352     0.584     1.200
    70   8 o        1.597    -0.668    26.895     6.999
    71   1 h        0.805     0.353     0.581     1.197
    72   1 h        0.788     0.368     0.550     1.166
    73   8 o        1.606    -0.695    27.570     7.086
    74   1 h        0.804     0.345     0.600     1.217
    75   1 h        0.802     0.357     0.573     1.189
    76   8 o        1.609    -0.669    26.887     6.998
    77   1 h        0.805     0.348     0.593     1.209
    78   1 h        0.803     0.353     0.581     1.198
    79   8 o        1.608    -0.677    27.097     7.026
    80   1 h        0.805     0.331     0.634     1.251
    81   1 h        0.804     0.333     0.629     1.246
    82   8 o        1.608    -0.684    27.280     7.049
    83   1 h        0.803     0.356     0.575     1.191
    84   1 h        0.805     0.355     0.577     1.193
    85   8 o        1.607    -0.679    27.151     7.033
    86   1 h        0.803     0.336     0.622     1.239
    87   1 h        0.803     0.349     0.590     1.207
    88   8 o        1.608    -0.674    27.037     7.018
    89   1 h        0.803     0.355     0.577     1.193
    90   1 h        0.805     0.326     0.648     1.264
    91   8 o        1.609    -0.683    27.271     7.048
    92   1 h        0.804     0.346     0.597     1.213
    93   1 h        0.804     0.338     0.617     1.234
    94   8 o        1.610    -0.662    26.718     6.976
    95   1 h        0.806     0.321     0.661     1.277
    96   1 h        0.804     0.356     0.574     1.190
    97   8 o        1.607    -0.691    27.485     7.076
    98   1 h        0.803     0.339     0.616     1.233
    99   1 h        0.805     0.325     0.650     1.266
   100   8 o        1.607    -0.693    27.525     7.081
   101   1 h        0.803     0.360     0.565     1.181
   102   1 h        0.804     0.350     0.588     1.204
   103   8 o        1.606    -0.713    28.057     7.149
   104   1 h        0.803     0.349     0.592     1.208
   105   1 h        0.804     0.355     0.576     1.192
   106   8 o        1.605    -0.695    27.585     7.088
   107   1 h        0.802     0.345     0.601     1.218
   108   1 h        0.803     0.356     0.574     1.190
   109   8 o        1.607    -0.697    27.641     7.096
   110   1 h        0.804     0.348     0.593     1.209
   111   1 h        0.803     0.350     0.588     1.205
   112   8 o        1.609    -0.679    27.170     7.035
   113   1 h        0.805     0.340     0.613     1.229
   114   1 h        0.804     0.334     0.628     1.244
   115   8 o        1.608    -0.686    27.335     7.056
   116   1 h        0.804     0.349     0.591     1.207
   117   1 h        0.804     0.340     0.612     1.229
   118   8 o        1.608    -0.680    27.183     7.037
   119   1 h        0.804     0.355     0.576     1.192
   120   1 h        0.804     0.348     0.594     1.210
   121   8 o        1.606    -0.687    27.371     7.061
   122   1 h        0.802     0.373     0.539     1.153
   123   1 h        0.805     0.319     0.665     1.281
   124   8 o        1.608    -0.684    27.276     7.049
   125   1 h        0.803     0.360     0.565     1.181
   126   1 h        0.804     0.348     0.594     1.210
   127   8 o        1.607    -0.680    27.177     7.036
   128   1 h        0.804     0.322     0.658     1.275
   129   1 h        0.804     0.347     0.595     1.212
   130   8 o        1.607    -0.695    27.590     7.089
   131   1 h        0.804     0.327     0.646     1.263
   132   1 h        0.803     0.341     0.611     1.228
   133   8 o        1.609    -0.657    26.586     6.959
   134   1 h        0.805     0.335     0.623     1.240
   135   1 h        0.804     0.316     0.674     1.290
   136   8 o        1.609    -0.673    26.990     7.012
   137   1 h        0.805     0.321     0.660     1.276
   138   1 h        0.804     0.364     0.556     1.171
   139   8 o        1.606    -0.700    27.719     7.106
   140   1 h        0.802     0.358     0.569     1.185
   141   1 h        0.804     0.347     0.595     1.212
   142   8 o        1.606    -0.681    27.201     7.039
   143   1 h        0.804     0.325     0.650     1.266
   144   1 h        0.803     0.356     0.575     1.191
   145   8 o        1.607    -0.686    27.353     7.059
   146   1 h        0.803     0.334     0.627     1.244
   147   1 h        0.804     0.362     0.562     1.177
   148   8 o        1.604    -0.721    28.283     7.177
   149   1 h        0.803     0.360     0.565     1.181
   150   1 h        0.803     0.359     0.569     1.185
   151   8 o        1.607    -0.679    27.149     7.032
   152   1 h        0.804     0.333     0.630     1.247
   153   1 h        0.804     0.358     0.569     1.185
   154   8 o        1.609    -0.672    26.972     7.009
   155   1 h        0.804     0.343     0.605     1.222
   156   1 h        0.804     0.323     0.657     1.273
   157   8 o        1.607    -0.669    26.911     7.001
   158   1 h        0.802     0.366     0.552     1.168
   159   1 h        0.804     0.338     0.617     1.233
   160   8 o        1.606    -0.699    27.683     7.101
   161   1 h        0.804     0.323     0.656     1.273
   162   1 h        0.803     0.363     0.559     1.175
   163   8 o        1.607    -0.701    27.726     7.107
   164   1 h        0.803     0.341     0.610     1.227
   165   1 h        0.803     0.357     0.571     1.187
   166   8 o        1.609    -0.677    27.096     7.025
   167   1 h        0.804     0.344     0.602     1.219
   168   1 h        0.804     0.333     0.629     1.246
   169   8 o        1.608    -0.675    27.059     7.021
   170   1 h        0.804     0.362     0.561     1.176
   171   1 h        0.804     0.325     0.650     1.267
   172   8 o        1.607    -0.674    27.035     7.017
   173   1 h        0.804     0.354     0.580     1.196
   174   1 h        0.802     0.363     0.558     1.174
   175   8 o        1.609    -0.683    27.250     7.045
   176   1 h        0.805     0.318     0.669     1.284
   177   1 h        0.804     0.336     0.622     1.239
   178   8 o        1.609    -0.660    26.677     6.971
   179   1 h        0.805     0.323     0.655     1.271
   180   1 h        0.804     0.338     0.617     1.234
   181   8 o        1.607    -0.693    27.515     7.080
   182   1 h        0.803     0.362     0.562     1.177
   183   1 h        0.804     0.326     0.648     1.264
   184   8 o        1.608    -0.690    27.436     7.069
   185   1 h        0.803     0.364     0.556     1.171
   186   1 h        0.804     0.341     0.610     1.227
   187   8 o        1.607    -0.711    27.999     7.142
   188   1 h        0.803     0.338     0.619     1.235
   189   1 h        0.804     0.357     0.573     1.189
   190   8 o        1.607    -0.658    26.625     6.964
   191   1 h        0.805     0.328     0.643     1.260
   192   1 h        0.803     0.345     0.600     1.217
   193   8 o        1.609    -0.664    26.761     6.982
   194   1 h        0.805     0.325     0.650     1.266
   195   1 h        0.804     0.340     0.612     1.229
   196   8 o        1.609    -0.690    27.434     7.069
   197   1 h        0.804     0.338     0.616     1.233
   198   1 h        0.804     0.328     0.643     1.259
   199   8 o        1.611    -0.650    26.422     6.938
   200   1 h        0.804     0.332     0.632     1.249
   201   1 h        0.804     0.320     0.664     1.280
   202   8 o        1.608    -0.717    28.158     7.162
   203   1 h        0.804     0.329     0.641     1.258
   204   1 h        0.804     0.346     0.598     1.214
   205   8 o        1.607    -0.680    27.184     7.037
   206   1 h        0.803     0.334     0.627     1.244
   207   1 h        0.805     0.343     0.606     1.222
   208   8 o        1.608    -0.679    27.156     7.033
   209   1 h        0.804     0.330     0.638     1.255
   210   1 h        0.804     0.341     0.611     1.228
   211   8 o        1.607    -0.671    26.945     7.006
   212   1 h        0.803     0.356     0.575     1.192
   213   1 h        0.804     0.327     0.646     1.262
   214   8 o        1.608    -0.698    27.667     7.099
   215   1 h        0.805     0.342     0.607     1.223
   216   1 h        0.803     0.348     0.593     1.209
   217   8 o        1.608    -0.679    27.168     7.035
   218   1 h        0.804     0.362     0.561     1.177
   219   1 h        0.804     0.329     0.641     1.257
   220   8 o        1.608    -0.669    26.900     7.000
   221   1 h        0.805     0.357     0.573     1.189
   222   1 h        0.803     0.332     0.631     1.248
   223   8 o        1.606    -0.699    27.678     7.100
   224   1 h        0.803     0.354     0.579     1.195
   225   1 h        0.803     0.350     0.587     1.204
   226   8 o        1.609    -0.673    26.997     7.013
   227   1 h        0.804     0.360     0.566     1.182
   228   1 h        0.805     0.316     0.673     1.289
   229   8 o        1.608    -0.658    26.623     6.964
   230   1 h        0.803     0.333     0.630     1.247
   231   1 h        0.804     0.325     0.650     1.266
   232   8 o        1.607    -0.675    27.061     7.021
   233   1 h        0.803     0.325     0.651     1.267
   234   1 h        0.804     0.337     0.619     1.236
   235   8 o        1.609    -0.672    26.984     7.011
   236   1 h        0.804     0.349     0.590     1.207
   237   1 h        0.805     0.347     0.595     1.212
   238   8 o        1.608    -0.662    26.730     6.978
   239   1 h        0.804     0.322     0.659     1.276
   240   1 h        0.804     0.335     0.626     1.243
   241   8 o        1.608    -0.675    27.061     7.021
   242   1 h        0.803     0.335     0.624     1.241
   243   1 h        0.805     0.329     0.639     1.255
   244   8 o        1.608    -0.678    27.131     7.030
   245   1 h        0.805     0.327     0.646     1.263
   246   1 h        0.803     0.355     0.577     1.193
   247   8 o        1.607    -0.684    27.280     7.049
   248   1 h        0.803     0.337     0.621     1.238
   249   1 h        0.804     0.344     0.601     1.218
   250   8 o        1.608    -0.658    26.623     6.964
   251   1 h        0.804     0.329     0.641     1.258
   252   1 h        0.804     0.332     0.632     1.249
   253   8 o        1.607    -0.684    27.282     7.050
   254   1 h        0.804     0.365     0.555     1.170
   255   1 h        0.804     0.333     0.629     1.246
   256   8 o        1.606    -0.703    27.799     7.116
   257   1 h        0.804     0.352     0.584     1.200
   258   1 h        0.803     0.339     0.615     1.232
   259   8 o        1.608    -0.670    26.935     7.005
   260   1 h        0.805     0.316     0.675     1.290
   261   1 h        0.803     0.369     0.547     1.162
   262   8 o        1.608    -0.666    26.822     6.990
   263   1 h        0.803     0.339     0.614     1.231
   264   1 h        0.805     0.327     0.646     1.263
   265   8 o        1.610    -0.674    27.026     7.016
   266   1 h        0.804     0.360     0.565     1.181
   267   1 h        0.805     0.323     0.656     1.272
   268   8 o        1.609    -0.667    26.848     6.993
   269   1 h        0.804     0.347     0.594     1.211
   270   1 h        0.805     0.329     0.641     1.257
   271   8 o        1.605    -0.677    27.112     7.027
   272   1 h        0.803     0.325     0.651     1.267
   273   1 h        0.802     0.358     0.570     1.186
   274   8 o        1.608    -0.669    26.899     7.000
   275   1 h        0.804     0.335     0.624     1.241
   276   1 h        0.804     0.347     0.596     1.213
   277   8 o        1.607    -0.696    27.609     7.092
   278   1 h        0.804     0.347     0.595     1.211
   279   1 h        0.804     0.338     0.616     1.233
   280   8 o        1.607    -0.661    26.708     6.975
   281   1 h        0.804     0.331     0.634     1.251
   282   1 h        0.803     0.339     0.614     1.231
   283   8 o        1.609    -0.657    26.601     6.961
   284   1 h        0.804     0.334     0.627     1.244
   285   1 h        0.805     0.341     0.609     1.226
   286   8 o        1.608    -0.689    27.433     7.069
   287   1 h        0.804     0.358     0.569     1.185
   288   1 h        0.804     0.341     0.610     1.227
   289   8 o        1.608    -0.672    26.988     7.011
   290   1 h        0.805     0.351     0.586     1.202
   291   1 h        0.803     0.355     0.577     1.193
   292   8 o        1.605    -0.687    27.358     7.059
   293   1 h        0.806     0.309     0.694     1.308
   294   1 h        0.801     0.367     0.551     1.166
   295   8 o        1.609    -0.641    26.188     6.907
   296   1 h        0.804     0.328     0.644     1.260
   297   1 h        0.806     0.316     0.676     1.291
   298   8 o        1.607    -0.687    27.371     7.061
   299   1 h        0.803     0.351     0.586     1.202
   300   1 h        0.804     0.338     0.616     1.233
   301   8 o        1.606    -0.678    27.141     7.031
   302   1 h        0.801     0.367     0.550     1.165
   303   1 h        0.805     0.322     0.658     1.274
   304   8 o        1.608    -0.695    27.572     7.087
   305   1 h        0.804     0.339     0.614     1.230
   306   1 h        0.804     0.339     0.615     1.231
   307   8 o        1.608    -0.686    27.337     7.057
   308   1 h        0.803     0.363     0.558     1.174
   309   1 h        0.804     0.336     0.621     1.238
   310   8 o        1.609    -0.671    26.958     7.008
   311   1 h        0.804     0.337     0.619     1.236
   312   1 h        0.805     0.332     0.631     1.248
   313   8 o        1.609    -0.659    26.632     6.965
   314   1 h        0.804     0.351     0.586     1.202
   315   1 h        0.805     0.327     0.646     1.262
   316   8 o        1.605    -0.676    27.084     7.024
   317   1 h        0.802     0.332     0.634     1.250
   318   1 h        0.804     0.334     0.626     1.243
   319   8 o        1.607    -0.677    27.106     7.027
   320   1 h        0.804     0.358     0.569     1.185
   321   1 h        0.803     0.327     0.645     1.262
   322   8 o        1.605    -0.699    27.696     7.103
   323   1 h        0.804     0.321     0.662     1.278
   324   1 h        0.802     0.364     0.557     1.172
   325   8 o        1.609    -0.685    27.302     7.052
   326   1 h        0.804     0.337     0.619     1.236
   327   1 h        0.804     0.340     0.613     1.230
   328   8 o        1.607    -0.695    27.589     7.089
   329   1 h        0.803     0.360     0.566     1.182
   330   1 h        0.805     0.318     0.668     1.284
   331   8 o        1.606    -0.700    27.704     7.104
   332   1 h        0.803     0.339     0.615     1.232
   333   1 h        0.804     0.320     0.663     1.279
   334   8 o        1.607    -0.683    27.265     7.047
   335   1 h        0.803     0.338     0.618     1.235
   336   1 h        0.804     0.354     0.578     1.194
   337   8 o        1.608    -0.688    27.400     7.065
   338   1 h        0.804     0.353     0.581     1.197
   339   1 h        0.805     0.326     0.648     1.264
   340   8 o        1.608    -0.678    27.131     7.030
   341   1 h        0.805     0.337     0.620     1.236
   342   1 h        0.804     0.332     0.631     1.248
   343   8 o        1.607    -0.696    27.613     7.092
   344   1 h        0.804     0.338     0.618     1.235
   345   1 h        0.804     0.359     0.569     1.185
   346   8 o        1.608    -0.667    26.842     6.992
   347   1 h        0.804     0.338     0.617     1.234
   348   1 h        0.803     0.350     0.589     1.206
   349   8 o        1.608    -0.692    27.493     7.077
   350   1 h        0.803     0.366     0.553     1.168
   351   1 h        0.804     0.336     0.623     1.239
   352   8 o        1.608    -0.671    26.950     7.006
   353   1 h        0.805     0.330     0.637     1.254
   354   1 h        0.803     0.346     0.598     1.214
   355   8 o        1.606    -0.672    26.976     7.010
   356   1 h        0.802     0.330     0.638     1.255
   357   1 h        0.804     0.325     0.650     1.267
   358   8 o        1.607    -0.694    27.545     7.083
   359   1 h        0.803     0.336     0.621     1.238
   360   1 h        0.803     0.356     0.574     1.190
   361   8 o        1.608    -0.653    26.480     6.945
   362   1 h        0.806     0.313     0.682     1.297
   363   1 h        0.802     0.355     0.577     1.193
   364   8 o        1.607    -0.679    27.167     7.035
   365   1 h        0.803     0.350     0.588     1.204
   366   1 h        0.804     0.327     0.646     1.262
   367   8 o        1.606    -0.704    27.823     7.119
   368   1 h        0.802     0.344     0.604     1.220
   369   1 h        0.804     0.330     0.637     1.254
   370   8 o        1.607    -0.679    27.163     7.034
   371   1 h        0.802     0.366     0.552     1.167
   372   1 h        0.805     0.324     0.654     1.270
   373   8 o        1.609    -0.663    26.741     6.979
   374   1 h        0.804     0.338     0.616     1.233
   375   1 h        0.805     0.332     0.633     1.250
   376   8 o        1.607    -0.701    27.738     7.108
   377   1 h        0.803     0.335     0.626     1.243
   378   1 h        0.804     0.332     0.631     1.248
   379   8 o        1.609    -0.660    26.672     6.970
   380   1 h        0.804     0.321     0.660     1.277
   381   1 h        0.804     0.322     0.659     1.275
   382   8 o        1.610    -0.653    26.482     6.946
   383   1 h        0.805     0.317     0.672     1.288
   384   1 h        0.804     0.345     0.599     1.216
   385   8 o        1.607    -0.681    27.205     7.040
   386   1 h        0.805     0.328     0.642     1.258
   387   1 h        0.803     0.349     0.591     1.208
   388   8 o        1.609    -0.664    26.782     6.985
   389   1 h        0.805     0.318     0.669     1.285
   390   1 h        0.803     0.345     0.601     1.218
   391   8 o        1.605    -0.704    27.825     7.119
   392   1 h        0.803     0.356     0.575     1.191
   393   1 h        0.803     0.323     0.655     1.272
   394   8 o        1.607    -0.683    27.271     7.048
   395   1 h        0.803     0.368     0.548     1.163
   396   1 h        0.804     0.335     0.625     1.241
   397   8 o        1.604    -0.718    28.202     7.167
   398   1 h        0.802     0.362     0.562     1.178
   399   1 h        0.802     0.358     0.570     1.186
   400   8 o        1.609    -0.673    27.004     7.014
   401   1 h        0.804     0.349     0.590     1.206
   402   1 h        0.805     0.326     0.649     1.265
   403   8 o        1.605    -0.696    27.610     7.092
   404   1 h        0.804     0.320     0.663     1.279
   405   1 h        0.803     0.369     0.546     1.161
   406   8 o        1.610    -0.668    26.882     6.998
   407   1 h        0.805     0.343     0.604     1.221
   408   1 h        0.805     0.331     0.635     1.252
   409   8 o        1.606    -0.690    27.440     7.070
   410   1 h        0.805     0.320     0.663     1.279
   411   1 h        0.802     0.367     0.551     1.166
   412   8 o        1.607    -0.671    26.942     7.005
   413   1 h        0.803     0.337     0.621     1.238
   414   1 h        0.803     0.336     0.621     1.238
   415   8 o        1.609    -0.671    26.944     7.006
   416   1 h        0.805     0.321     0.660     1.276
   417   1 h        0.804     0.338     0.616     1.233
   418   8 o        1.607    -0.684    27.284     7.050
   419   1 h        0.804     0.334     0.628     1.244
   420   1 h        0.803     0.325     0.650     1.267
   421   8 o        1.607    -0.673    27.012     7.014
   422   1 h        0.805     0.312     0.686     1.301
   423   1 h        0.802     0.335     0.625     1.242
   424   8 o        1.608    -0.691    27.469     7.074
   425   1 h        0.804     0.336     0.622     1.238
   426   1 h        0.804     0.337     0.620     1.236
   427   8 o        1.608    -0.696    27.610     7.092
   428   1 h        0.803     0.359     0.568     1.184
   429   1 h        0.804     0.359     0.567     1.182
   430   8 o        1.605    -0.702    27.767     7.112
   431   1 h        0.803     0.350     0.588     1.204
   432   1 h        0.803     0.358     0.570     1.186
   433   8 o        1.607    -0.693    27.522     7.080
   434   1 h        0.802     0.354     0.580     1.197
   435   1 h        0.805     0.321     0.660     1.276
   436   8 o        1.607    -0.693    27.517     7.080
   437   1 h        0.803     0.351     0.586     1.203
   438   1 h        0.804     0.335     0.624     1.241
   439   8 o        1.608    -0.653    26.494     6.947
   440   1 h        0.803     0.345     0.600     1.217
   441   1 h        0.805     0.317     0.671     1.287
   442   8 o        1.607    -0.670    26.933     7.004
   443   1 h        0.802     0.339     0.615     1.232
   444   1 h        0.805     0.329     0.641     1.257
   445   8 o        1.606    -0.692    27.509     7.079
   446   1 h        0.802     0.358     0.570     1.186
   447   1 h        0.803     0.339     0.615     1.232
   448   8 o        1.609    -0.672    26.986     7.011
   449   1 h        0.804     0.331     0.634     1.251
   450   1 h        0.805     0.340     0.611     1.228
   451   8 o        1.609    -0.704    27.825     7.119
   452   1 h        0.804     0.358     0.569     1.185
   453   1 h        0.804     0.348     0.592     1.209
   454   8 o        1.606    -0.689    27.411     7.066
   455   1 h        0.803     0.369     0.545     1.160
   456   1 h        0.803     0.333     0.631     1.248
   457   8 o        1.606    -0.690    27.445     7.071
   458   1 h        0.803     0.332     0.634     1.250
   459   1 h        0.803     0.348     0.594     1.210
   460   8 o        1.607    -0.679    27.164     7.034
   461   1 h        0.805     0.320     0.663     1.279
   462   1 h        0.802     0.338     0.619     1.236
   463   8 o        1.608    -0.656    26.564     6.956
   464   1 h        0.803     0.334     0.627     1.244
   465   1 h        0.805     0.329     0.640     1.257
   466   8 o        1.605    -0.684    27.300     7.052
   467   1 h        0.803     0.353     0.581     1.197
   468   1 h        0.803     0.338     0.618     1.235
   469   8 o        1.608    -0.667    26.837     6.992
   470   1 h        0.804     0.328     0.642     1.258
   471   1 h        0.804     0.344     0.601     1.218
   472   8 o        1.609    -0.672    26.981     7.011
   473   1 h        0.805     0.327     0.646     1.263
   474   1 h        0.804     0.352     0.584     1.200
   475   8 o        1.608    -0.673    27.013     7.015
   476   1 h        0.803     0.355     0.578     1.194
   477   1 h        0.805     0.330     0.638     1.255
   478   8 o        1.608    -0.675    27.054     7.020
   479   1 h        0.803     0.347     0.594     1.211
   480   1 h        0.805     0.328     0.642     1.259
   481   8 o        1.609    -0.657    26.598     6.961
   482   1 h        0.805     0.312     0.686     1.301
   483   1 h        0.805     0.340     0.611     1.228
   484   8 o        1.608    -0.665    26.784     6.985
   485   1 h        0.802     0.374     0.536     1.151
   486   1 h        0.805     0.307     0.701     1.315
   487   8 o        1.609    -0.682    27.233     7.043
   488   1 h        0.803     0.363     0.559     1.174
   489   1 h        0.805     0.312     0.687     1.302
   490   8 o        1.607    -0.682    27.233     7.043
   491   1 h        0.804     0.353     0.582     1.198
   492   1 h        0.803     0.326     0.649     1.266
   493   8 o        1.607    -0.669    26.891     6.999
   494   1 h        0.804     0.319     0.668     1.283
   495   1 h        0.803     0.347     0.594     1.211
   496   8 o        1.607    -0.709    27.943     7.134
   497   1 h        0.803     0.347     0.596     1.213
   498   1 h        0.804     0.352     0.583     1.199
   499   8 o        1.608    -0.695    27.570     7.087
   500   1 h        0.803     0.345     0.599     1.216
   501   1 h        0.805     0.329     0.639     1.256
   502   8 o        1.608    -0.669    26.890     6.999
   503   1 h        0.805     0.324     0.653     1.269
   504   1 h        0.803     0.344     0.602     1.219
   505   8 o        1.608    -0.667    26.851     6.994
   506   1 h        0.805     0.326     0.647     1.263
   507   1 h        0.804     0.340     0.612     1.229
   508   8 o        1.607    -0.678    27.129     7.030
   509   1 h        0.803     0.333     0.629     1.246
   510   1 h        0.804     0.337     0.619     1.236
   511   8 o        1.608    -0.669    26.901     7.000
   512   1 h        0.803     0.326     0.648     1.264
   513   1 h        0.805     0.335     0.623     1.240
   514   8 o        1.609    -0.679    27.158     7.034
   515   1 h        0.805     0.323     0.655     1.271
   516   1 h        0.804     0.340     0.613     1.230
   517   8 o        1.608    -0.684    27.295     7.051
   518   1 h        0.804     0.327     0.646     1.263
   519   1 h        0.804     0.344     0.603     1.220
   520   8 o        1.608    -0.664    26.777     6.984
   521   1 h        0.803     0.363     0.560     1.175
   522   1 h        0.805     0.316     0.675     1.291
   523   8 o        1.607    -0.686    27.348     7.058
   524   1 h        0.803     0.340     0.612     1.228
   525   1 h        0.804     0.335     0.625     1.242
   526   8 o        1.605    -0.662    26.730     6.978
   527   1 h        0.801     0.342     0.607     1.225
   528   1 h        0.806     0.305     0.705     1.319
   529   8 o        1.609    -0.669    26.907     7.001
   530   1 h        0.803     0.327     0.646     1.263
   531   1 h        0.804     0.354     0.579     1.196
   532   8 o        1.609    -0.677    27.093     7.025
   533   1 h        0.804     0.344     0.602     1.219
   534   1 h        0.804     0.338     0.616     1.233
   535   8 o        1.609    -0.676    27.081     7.024
   536   1 h        0.805     0.331     0.634     1.251
   537   1 h        0.804     0.348     0.592     1.208
   538   8 o        1.608    -0.681    27.214     7.041
   539   1 h        0.805     0.322     0.658     1.275
   540   1 h        0.803     0.358     0.570     1.186
   541   8 o        1.605    -0.715    28.120     7.157
   542   1 h        0.802     0.333     0.630     1.246
   543   1 h        0.803     0.352     0.585     1.201
   544   8 o        1.605    -0.713    28.058     7.149
   545   1 h        0.803     0.341     0.610     1.226
   546   1 h        0.802     0.360     0.565     1.181
   547   8 o        1.606    -0.681    27.209     7.040
   548   1 h        0.804     0.337     0.621     1.238
   549   1 h        0.803     0.339     0.616     1.233
   550   8 o        1.609    -0.677    27.102     7.026
   551   1 h        0.805     0.331     0.635     1.252
   552   1 h        0.804     0.330     0.638     1.255
   553   8 o        1.610    -0.665    26.788     6.986
   554   1 h        0.805     0.339     0.616     1.233
   555   1 h        0.805     0.339     0.615     1.232
   556   8 o        1.608    -0.677    27.108     7.027
   557   1 h        0.804     0.344     0.602     1.219
   558   1 h        0.804     0.329     0.641     1.257
   559   8 o        1.606    -0.663    26.738     6.979
   560   1 h        0.802     0.354     0.579     1.196
   561   1 h        0.806     0.308     0.698     1.312
   562   8 o        1.608    -0.664    26.761     6.982
   563   1 h        0.805     0.306     0.702     1.316
   564   1 h        0.803     0.354     0.579     1.195
   565   8 o        1.607    -0.691    27.474     7.074
   566   1 h        0.803     0.358     0.571     1.187
   567   1 h        0.804     0.326     0.648     1.264
   568   8 o        1.609    -0.680    27.194     7.038
   569   1 h        0.804     0.330     0.637     1.254
   570   1 h        0.805     0.322     0.659     1.276
   571   8 o        1.608    -0.667    26.857     6.994
   572   1 h        0.805     0.315     0.677     1.292
   573   1 h        0.803     0.372     0.540     1.154
   574   8 o        1.610    -0.680    27.194     7.038
   575   1 h        0.805     0.333     0.630     1.246
   576   1 h        0.805     0.343     0.606     1.222
   577   8 o        1.608    -0.683    27.272     7.048
   578   1 h        0.804     0.329     0.640     1.256
   579   1 h        0.804     0.352     0.584     1.201
   580   8 o        1.609    -0.640    26.157     6.903
   581   1 h        0.803     0.341     0.610     1.227
   582   1 h        0.806     0.312     0.687     1.302
   583   8 o        1.607    -0.703    27.802     7.116
   584   1 h        0.805     0.319     0.667     1.283
   585   1 h        0.802     0.362     0.562     1.178
   586   8 o        1.607    -0.685    27.311     7.053
   587   1 h        0.806     0.310     0.691     1.305
   588   1 h        0.802     0.363     0.559     1.174
   589   8 o        1.609    -0.669    26.893     6.999
   590   1 h        0.803     0.351     0.586     1.203
   591   1 h        0.805     0.325     0.650     1.266
   592   8 o        1.607    -0.676    27.071     7.022
   593   1 h        0.802     0.357     0.572     1.189
   594   1 h        0.806     0.309     0.695     1.309
   595   8 o        1.608    -0.674    27.039     7.018
   596   1 h        0.806     0.303     0.713     1.327
   597   1 h        0.803     0.362     0.561     1.177
   598   8 o        1.606    -0.704    27.808     7.117
   599   1 h        0.804     0.333     0.630     1.247
   600   1 h        0.802     0.360     0.566     1.182
   601   8 o        1.607    -0.693    27.530     7.081
   602   1 h        0.804     0.323     0.655     1.271
   603   1 h        0.803     0.358     0.571     1.187
   604   8 o        1.607    -0.673    27.001     7.013
   605   1 h        0.802     0.357     0.573     1.190
   606   1 h        0.806     0.314     0.680     1.295
   607   8 o        1.607    -0.679    27.148     7.032
   608   1 h        0.803     0.333     0.629     1.246
   609   1 h        0.804     0.338     0.618     1.235
   610   8 o        1.606    -0.687    27.371     7.061
   611   1 h        0.805     0.322     0.658     1.274
   612   1 h        0.802     0.350     0.588     1.205
   613   8 o        1.609    -0.674    27.026     7.016
   614   1 h        0.805     0.330     0.637     1.253
   615   1 h        0.804     0.342     0.608     1.225
   616   8 o        1.609    -0.671    26.942     7.005
   617   1 h        0.804     0.335     0.626     1.242
   618   1 h        0.805     0.337     0.620     1.237
   619   8 o        1.608    -0.689    27.409     7.066
   620   1 h        0.805     0.356     0.574     1.190
   621   1 h        0.803     0.334     0.628     1.245
   622   8 o        1.609    -0.684    27.281     7.049
   623   1 h        0.804     0.334     0.628     1.244
   624   1 h        0.804     0.338     0.616     1.233
   625   8 o        1.608    -0.683    27.255     7.046
   626   1 h        0.804     0.346     0.597     1.214
   627   1 h        0.805     0.325     0.651     1.268
   628   8 o        1.607    -0.699    27.677     7.100
   629   1 h        0.803     0.360     0.565     1.180
   630   1 h        0.804     0.314     0.680     1.296
   631   8 o        1.608    -0.676    27.080     7.023
   632   1 h        0.803     0.359     0.568     1.184
   633   1 h        0.804     0.351     0.586     1.203
   634   8 o        1.606    -0.668    26.873     6.996
   635   1 h        0.806     0.305     0.706     1.320
   636   1 h        0.801     0.359     0.568     1.184
   637   8 o        1.605    -0.695    27.590     7.089
   638   1 h        0.805     0.315     0.678     1.294
   639   1 h        0.802     0.367     0.551     1.166
   640   8 o        1.607    -0.684    27.285     7.050
   641   1 h        0.804     0.370     0.543     1.158
   642   1 h        0.804     0.326     0.648     1.264
   643   8 o        1.606    -0.690    27.458     7.072
   644   1 h        0.801     0.364     0.557     1.172
   645   1 h        0.806     0.304     0.709     1.322
   646   8 o        1.607    -0.668    26.863     6.995
   647   1 h        0.806     0.319     0.667     1.283
   648   1 h        0.802     0.358     0.570     1.186
   649   8 o        1.609    -0.647    26.349     6.928
   650   1 h        0.805     0.324     0.653     1.270
   651   1 h        0.804     0.345     0.600     1.216
   652   8 o        1.608    -0.692    27.509     7.079
   653   1 h        0.804     0.355     0.577     1.194
   654   1 h        0.803     0.334     0.627     1.244
   655   8 o        1.607    -0.679    27.170     7.035
   656   1 h        0.803     0.336     0.623     1.240
   657   1 h        0.804     0.329     0.640     1.257
   658   8 o        1.606    -0.689    27.422     7.067
   659   1 h        0.805     0.315     0.677     1.292
   660   1 h        0.802     0.369     0.546     1.161
   661   8 o        1.610    -0.659    26.631     6.965
   662   1 h        0.805     0.330     0.636     1.253
   663   1 h        0.804     0.339     0.615     1.232
   664   8 o        1.606    -0.706    27.869     7.125
   665   1 h        0.803     0.362     0.562     1.178
   666   1 h        0.803     0.348     0.593     1.210
   667   8 o        1.609    -0.676    27.085     7.024
   668   1 h        0.803     0.357     0.571     1.188
   669   1 h        0.806     0.315     0.676     1.292
   670   8 o        1.607    -0.685    27.305     7.052
   671   1 h        0.805     0.319     0.667     1.283
   672   1 h        0.802     0.363     0.558     1.174
   673   8 o        1.609    -0.697    27.628     7.094
   674   1 h        0.804     0.350     0.587     1.204
   675   1 h        0.804     0.335     0.624     1.241
   676   8 o        1.607    -0.677    27.116     7.028
   677   1 h        0.803     0.355     0.576     1.192
   678   1 h        0.804     0.328     0.641     1.258
   679   8 o        1.609    -0.657    26.593     6.960
   680   1 h        0.804     0.337     0.619     1.236
   681   1 h        0.805     0.327     0.644     1.260
   682   8 o        1.609    -0.700    27.710     7.105
   683   1 h        0.803     0.346     0.599     1.216
   684   1 h        0.804     0.342     0.607     1.224
   685   8 o        1.607    -0.669    26.906     7.001
   686   1 h        0.804     0.353     0.582     1.198
   687   1 h        0.803     0.338     0.618     1.235
   688   8 o        1.606    -0.700    27.723     7.106
   689   1 h        0.804     0.348     0.593     1.210
   690   1 h        0.804     0.348     0.594     1.210
   691   8 o        1.608    -0.689    27.418     7.067
   692   1 h        0.804     0.335     0.625     1.241
   693   1 h        0.804     0.346     0.597     1.214
   694   8 o        1.607    -0.693    27.539     7.083
   695   1 h        0.803     0.353     0.581     1.198
   696   1 h        0.803     0.351     0.585     1.201
   697   8 o        1.607    -0.684    27.289     7.050
   698   1 h        0.804     0.321     0.661     1.277
   699   1 h        0.803     0.361     0.563     1.179
   700   8 o        1.608    -0.695    27.578     7.088
   701   1 h        0.804     0.345     0.599     1.216
   702   1 h        0.804     0.336     0.621     1.238
   703   8 o        1.608    -0.683    27.271     7.048
   704   1 h        0.804     0.338     0.616     1.233
   705   1 h        0.804     0.333     0.629     1.246
   706   8 o        1.608    -0.664    26.776     6.984
   707   1 h        0.805     0.311     0.688     1.303
   708   1 h        0.803     0.354     0.579     1.195
   709   8 o        1.608    -0.677    27.114     7.028
   710   1 h        0.803     0.361     0.564     1.180
   711   1 h        0.806     0.308     0.698     1.313
   712   8 o        1.609    -0.676    27.074     7.023
   713   1 h        0.804     0.321     0.661     1.277
   714   1 h        0.804     0.351     0.587     1.203
   715   8 o        1.608    -0.668    26.870     6.996
   716   1 h        0.804     0.326     0.647     1.263
   717   1 h        0.803     0.355     0.576     1.192
   718   8 o        1.608    -0.657    26.599     6.961
   719   1 h        0.803     0.341     0.611     1.228
   720   1 h        0.805     0.322     0.659     1.275
   721   8 o        1.608    -0.673    27.011     7.014
   722   1 h        0.804     0.329     0.641     1.258
   723   1 h        0.805     0.333     0.630     1.247
   724   8 o        1.606    -0.676    27.092     7.025
   725   1 h        0.804     0.328     0.642     1.259
   726   1 h        0.803     0.349     0.591     1.208
   727   8 o        1.608    -0.669    26.887     6.998
   728   1 h        0.803     0.369     0.545     1.160
   729   1 h        0.805     0.328     0.643     1.260
   730   8 o        1.609    -0.670    26.916     7.002
   731   1 h        0.805     0.322     0.658     1.274
   732   1 h        0.803     0.351     0.585     1.202
   733   8 o        1.608    -0.677    27.102     7.026
   734   1 h        0.804     0.343     0.604     1.221
   735   1 h        0.804     0.331     0.635     1.251
   736   8 o        1.608    -0.674    27.041     7.018
   737   1 h        0.804     0.339     0.616     1.232
   738   1 h        0.803     0.340     0.613     1.230
   739   8 o        1.608    -0.689    27.431     7.069
   740   1 h        0.804     0.368     0.548     1.163
   741   1 h        0.803     0.345     0.601     1.218
   742   8 o        1.605    -0.708    27.921     7.132
   743   1 h        0.801     0.367     0.551     1.166
   744   1 h        0.805     0.323     0.655     1.271
   745   8 o        1.605    -0.687    27.382     7.062
   746   1 h        0.803     0.336     0.622     1.239
   747   1 h        0.803     0.345     0.599     1.216
   748   8 o        1.608    -0.702    27.760     7.111
   749   1 h        0.804     0.354     0.580     1.196
   750   1 h        0.805     0.336     0.621     1.238
   751   8 o        1.605    -0.684    27.280     7.049
   752   1 h        0.801     0.365     0.555     1.170
   753   1 h        0.805     0.328     0.642     1.259
   754   8 o        1.610    -0.657    26.587     6.959
   755   1 h        0.806     0.322     0.659     1.275
   756   1 h        0.804     0.342     0.606     1.223

 Mol. C6AA /au·bohr⁶  :    2900459.873872
 Mol. C8AA /au·bohr⁸  :   52633392.498500
 Mol. α(0) /au        :       2393.412863


Wiberg/Mayer (AO) data.
largest (>0.10) Wiberg bond orders for each atom

 ---------------------------------------------------------------------------
     #   Z sym  total        # sym  WBO       # sym  WBO       # sym  WBO
 ---------------------------------------------------------------------------
     1   8 o    1.826 --     3 h    0.888     2 h    0.806
     2   1 h    0.876 --     1 o    0.806
     3   1 h    0.904 --     1 o    0.888
     4   8 o    1.865 --     6 h    0.860     5 h    0.774
     5   1 h    0.872 --     4 o    0.774
     6   1 h    0.886 --     4 o    0.860
     7   8 o    1.861 --     8 h    0.818     9 h    0.801
     8   1 h    0.885 --     7 o    0.818
     9   1 h    0.874 --     7 o    0.801
    10   8 o    1.852 --    11 h    0.811    12 h    0.808
    11   1 h    0.876 --    10 o    0.811
    12   1 h    0.882 --    10 o    0.808
    13   8 o    1.879 --    14 h    0.804    15 h    0.797
    14   1 h    0.872 --    13 o    0.804
    15   1 h    0.872 --    13 o    0.797
    16   8 o    1.872 --    17 h    0.810    18 h    0.809
    17   1 h    0.894 --    16 o    0.810
    18   1 h    0.875 --    16 o    0.809
    19   8 o    1.863 --    20 h    0.851    21 h    0.810
    20   1 h    0.881 --    19 o    0.851
    21   1 h    0.877 --    19 o    0.810
    22   8 o    1.839 --    23 h    0.859    24 h    0.791
    23   1 h    0.892 --    22 o    0.859
    24   1 h    0.877 --    22 o    0.791
    25   8 o    1.864 --    26 h    0.809    27 h    0.805
    26   1 h    0.881 --    25 o    0.809
    27   1 h    0.871 --    25 o    0.805
    28   8 o    1.835 --    30 h    0.819    29 h    0.815
    29   1 h    0.878 --    28 o    0.815
    30   1 h    0.885 --    28 o    0.819
    31   8 o    1.843 --    32 h    0.838    33 h    0.817
    32   1 h    0.884 --    31 o    0.838
    33   1 h    0.876 --    31 o    0.817
    34   8 o    1.856 --    35 h    0.832    36 h    0.817
    35   1 h    0.879 --    34 o    0.832
    36   1 h    0.882 --    34 o    0.817
    37   8 o    1.839 --    39 h    0.838    38 h    0.820
    38   1 h    0.888 --    37 o    0.820
    39   1 h    0.891 --    37 o    0.838
    40   8 o    1.848 --    41 h    0.860    42 h    0.839
    41   1 h    0.882 --    40 o    0.860
    42   1 h    0.879 --    40 o    0.839
    43   8 o    1.880 --    44 h    0.845    45 h    0.822
    44   1 h    0.879 --    43 o    0.845
    45   1 h    0.885 --    43 o    0.822
    46   8 o    1.871 --    48 h    0.834    47 h    0.823
    47   1 h    0.882 --    46 o    0.823
    48   1 h    0.867 --    46 o    0.834
    49   8 o    1.855 --    50 h    0.847    51 h    0.778
    50   1 h    0.885 --    49 o    0.847
    51   1 h    0.875 --    49 o    0.778
    52   8 o    1.844 --    53 h    0.854    54 h    0.834
    53   1 h    0.895 --    52 o    0.854
    54   1 h    0.883 --    52 o    0.834
    55   8 o    1.866 --    56 h    0.809    57 h    0.790
    56   1 h    0.877 --    55 o    0.809
    57   1 h    0.874 --    55 o    0.790
    58   8 o    1.835 --    59 h    0.855    60 h    0.821
    59   1 h    0.903 --    58 o    0.855
    60   1 h    0.882 --    58 o    0.821
    61   8 o    1.821 --    63 h    0.841    62 h    0.818
    62   1 h    0.874 --    61 o    0.818
    63   1 h    0.890 --    61 o    0.841
    64   8 o    1.864 --    65 h    0.837    66 h    0.796
    65   1 h    0.890 --    64 o    0.837
    66   1 h    0.863 --    64 o    0.796
    67   8 o    1.846 --    68 h    0.807    69 h    0.780
    68   1 h    0.881 --    67 o    0.807
    69   1 h    0.876 --    67 o    0.780
    70   8 o    1.929 --    71 h    0.826    72 h    0.792
    71   1 h    0.875 --    70 o    0.826
    72   1 h    0.864 --    70 o    0.792
    73   8 o    1.867 --    74 h    0.830    75 h    0.788
    74   1 h    0.881 --    73 o    0.830
    75   1 h    0.873 --    73 o    0.788
    76   8 o    1.882 --    77 h    0.839    78 h    0.819
    77   1 h    0.879 --    76 o    0.839
    78   1 h    0.875 --    76 o    0.819
    79   8 o    1.811 --    80 h    0.858    81 h    0.835
    80   1 h    0.890 --    79 o    0.858
    81   1 h    0.889 --    79 o    0.835
    82   8 o    1.879 --    84 h    0.823    83 h    0.807
    83   1 h    0.873 --    82 o    0.807
    84   1 h    0.874 --    82 o    0.823
    85   8 o    1.868 --    86 h    0.821    87 h    0.820
    86   1 h    0.887 --    85 o    0.821
    87   1 h    0.878 --    85 o    0.820
    88   8 o    1.853 --    90 h    0.861    89 h    0.805
    89   1 h    0.874 --    88 o    0.805
    90   1 h    0.894 --    88 o    0.861
    91   8 o    1.843 --    93 h    0.840    92 h    0.826
    92   1 h    0.880 --    91 o    0.826
    93   1 h    0.886 --    91 o    0.840
    94   8 o    1.840 --    95 h    0.877    96 h    0.821
    95   1 h    0.897 --    94 o    0.877
    96   1 h    0.873 --    94 o    0.821
    97   8 o    1.795 --    99 h    0.863    98 h    0.817
    98   1 h    0.885 --    97 o    0.817
    99   1 h    0.894 --    97 o    0.863
   100   8 o    1.869 --   102 h    0.830   101 h    0.786
   101   1 h    0.870 --   100 o    0.786
   102   1 h    0.877 --   100 o    0.830
   103   8 o    1.848 --   105 h    0.798   104 h    0.788
   104   1 h    0.878 --   103 o    0.788
   105   1 h    0.874 --   103 o    0.798
   106   8 o    1.864 --   108 h    0.810   107 h    0.799
   107   1 h    0.881 --   106 o    0.799
   108   1 h    0.873 --   106 o    0.810
   109   8 o    1.852 --   110 h    0.817   111 h    0.812
   110   1 h    0.879 --   109 o    0.817
   111   1 h    0.877 --   109 o    0.812
   112   8 o    1.842 --   114 h    0.834   113 h    0.833
   113   1 h    0.884 --   112 o    0.833
   114   1 h    0.889 --   112 o    0.834
   115   8 o    1.849 --   117 h    0.833   116 h    0.817
   116   1 h    0.878 --   115 o    0.817
   117   1 h    0.884 --   115 o    0.833
   118   8 o    1.850 --   120 h    0.838   119 h    0.823
   119   1 h    0.874 --   118 o    0.823
   120   1 h    0.879 --   118 o    0.838
   121   8 o    1.856 --   123 h    0.866   122 h    0.767
   122   1 h    0.861 --   121 o    0.767
   123   1 h    0.898 --   121 o    0.866
   124   8 o    1.866 --   126 h    0.832   125 h    0.808
   125   1 h    0.870 --   124 o    0.808
   126   1 h    0.879 --   124 o    0.832
   127   8 o    1.836 --   128 h    0.841   129 h    0.821
   128   1 h    0.896 --   127 o    0.841
   129   1 h    0.879 --   127 o    0.821
   130   8 o    1.794 --   131 h    0.849   132 h    0.827
   131   1 h    0.893 --   130 o    0.849
   132   1 h    0.884 --   130 o    0.827
   133   8 o    1.835 --   135 h    0.855   134 h    0.852
   134   1 h    0.887 --   133 o    0.852
   135   1 h    0.900 --   133 o    0.855
   136   8 o    1.836 --   137 h    0.875   138 h    0.806
   137   1 h    0.897 --   136 o    0.875
   138   1 h    0.867 --   136 o    0.806
   139   8 o    1.866 --   141 h    0.830   140 h    0.776
   140   1 h    0.871 --   139 o    0.776
   141   1 h    0.879 --   139 o    0.830
   142   8 o    1.866 --   143 h    0.835   144 h    0.804
   143   1 h    0.894 --   142 o    0.835
   144   1 h    0.873 --   142 o    0.804
   145   8 o    1.861 --   147 h    0.825   146 h    0.818
   146   1 h    0.888 --   145 o    0.818
   147   1 h    0.869 --   145 o    0.825
   148   8 o    1.856 --   150 h    0.799   149 h    0.767
   149   1 h    0.870 --   148 o    0.767
   150   1 h    0.871 --   148 o    0.799
   151   8 o    1.873 --   152 h    0.829   153 h    0.816
   152   1 h    0.889 --   151 o    0.829
   153   1 h    0.872 --   151 o    0.816
   154   8 o    1.840 --   156 h    0.844   155 h    0.824
   155   1 h    0.882 --   154 o    0.824
   156   1 h    0.896 --   154 o    0.844
   157   8 o    1.891 --   159 h    0.846   158 h    0.799
   158   1 h    0.866 --   157 o    0.799
   159   1 h    0.886 --   157 o    0.846
   160   8 o    1.849 --   161 h    0.827   162 h    0.789
   161   1 h    0.896 --   160 o    0.827
   162   1 h    0.868 --   160 o    0.789
   163   8 o    1.831 --   164 h    0.831   165 h    0.822
   164   1 h    0.884 --   163 o    0.831
   165   1 h    0.872 --   163 o    0.822
   166   8 o    1.856 --   167 h    0.831   168 h    0.830
   167   1 h    0.882 --   166 o    0.831
   168   1 h    0.889 --   166 o    0.830
   169   8 o    1.867 --   171 h    0.845   170 h    0.803
   170   1 h    0.869 --   169 o    0.803
   171   1 h    0.894 --   169 o    0.845
   172   8 o    1.898 --   173 h    0.834   174 h    0.796
   173   1 h    0.875 --   172 o    0.834
   174   1 h    0.868 --   172 o    0.796
   175   8 o    1.781 --   176 h    0.867   177 h    0.836
   176   1 h    0.899 --   175 o    0.867
   177   1 h    0.887 --   175 o    0.836
   178   8 o    1.836 --   179 h    0.865   180 h    0.837
   179   1 h    0.895 --   178 o    0.865
   180   1 h    0.886 --   178 o    0.837
   181   8 o    1.834 --   183 h    0.841   182 h    0.792
   182   1 h    0.869 --   181 o    0.792
   183   1 h    0.894 --   181 o    0.841
   184   8 o    1.876 --   186 h    0.822   185 h    0.786
   185   1 h    0.867 --   184 o    0.786
   186   1 h    0.884 --   184 o    0.822
   187   8 o    1.826 --   188 h    0.826   189 h    0.808
   188   1 h    0.886 --   187 o    0.826
   189   1 h    0.873 --   187 o    0.808
   190   8 o    1.870 --   191 h    0.863   192 h    0.817
   191   1 h    0.893 --   190 o    0.863
   192   1 h    0.881 --   190 o    0.817
   193   8 o    1.822 --   194 h    0.870   195 h    0.844
   194   1 h    0.894 --   193 o    0.870
   195   1 h    0.884 --   193 o    0.844
   196   8 o    1.801 --   198 h    0.839   197 h    0.826
   197   1 h    0.885 --   196 o    0.826
   198   1 h    0.892 --   196 o    0.839
   199   8 o    1.890 --   201 h    0.845   200 h    0.827   690 h    0.103
   200   1 h    0.890 --   199 o    0.827
   201   1 h    0.897 --   199 o    0.845
   202   8 o    1.784 --   203 h    0.818   204 h    0.814
   203   1 h    0.892 --   202 o    0.818
   204   1 h    0.880 --   202 o    0.814
   205   8 o    1.852 --   207 h    0.829   206 h    0.808
   206   1 h    0.888 --   205 o    0.808
   207   1 h    0.882 --   205 o    0.829
   208   8 o    1.825 --   209 h    0.840   210 h    0.834
   209   1 h    0.891 --   208 o    0.840
   210   1 h    0.884 --   208 o    0.834
   211   8 o    1.874 --   213 h    0.845   212 h    0.811
   212   1 h    0.874 --   211 o    0.811
   213   1 h    0.893 --   211 o    0.845
   214   8 o    1.832 --   215 h    0.836   216 h    0.801
   215   1 h    0.883 --   214 o    0.836
   216   1 h    0.879 --   214 o    0.801
   217   8 o    1.853 --   219 h    0.848   218 h    0.811
   218   1 h    0.869 --   217 o    0.811
   219   1 h    0.892 --   217 o    0.848
   220   8 o    1.873 --   222 h    0.827   221 h    0.825
   221   1 h    0.873 --   220 o    0.825
   222   1 h    0.889 --   220 o    0.827
   223   8 o    1.861 --   224 h    0.804   225 h    0.800
   224   1 h    0.874 --   223 o    0.804
   225   1 h    0.877 --   223 o    0.800
   226   8 o    1.828 --   228 h    0.864   227 h    0.814
   227   1 h    0.871 --   226 o    0.814
   228   1 h    0.900 --   226 o    0.864
   229   8 o    1.853 --   231 h    0.852   230 h    0.832
   230   1 h    0.889 --   229 o    0.832
   231   1 h    0.894 --   229 o    0.852
   232   8 o    1.855 --   233 h    0.823   234 h    0.821
   233   1 h    0.894 --   232 o    0.823
   234   1 h    0.886 --   232 o    0.821
   235   8 o    1.856 --   237 h    0.833   236 h    0.829
   236   1 h    0.878 --   235 o    0.829
   237   1 h    0.880 --   235 o    0.833
   238   8 o    1.854 --   239 h    0.841   240 h    0.827
   239   1 h    0.896 --   238 o    0.841
   240   1 h    0.888 --   238 o    0.827
   241   8 o    1.821 --   243 h    0.857   242 h    0.827
   242   1 h    0.888 --   241 o    0.827
   243   1 h    0.891 --   241 o    0.857
   244   8 o    1.833 --   245 h    0.855   246 h    0.809
   245   1 h    0.893 --   244 o    0.855
   246   1 h    0.874 --   244 o    0.809
   247   8 o    1.861 --   249 h    0.822   248 h    0.817
   248   1 h    0.887 --   247 o    0.817
   249   1 h    0.881 --   247 o    0.822
   250   8 o    1.855 --   251 h    0.841   252 h    0.841
   251   1 h    0.892 --   250 o    0.841
   252   1 h    0.890 --   250 o    0.841
   253   8 o    1.856 --   255 h    0.843   254 h    0.801
   254   1 h    0.867 --   253 o    0.801
   255   1 h    0.889 --   253 o    0.843
   256   8 o    1.837 --   258 h    0.809   257 h    0.801
   257   1 h    0.876 --   256 o    0.801
   258   1 h    0.885 --   256 o    0.809
   259   8 o    1.846 --   260 h    0.875   261 h    0.809
   260   1 h    0.900 --   259 o    0.875
   261   1 h    0.864 --   259 o    0.809
   262   8 o    1.843 --   264 h    0.851   263 h    0.829
   263   1 h    0.885 --   262 o    0.829
   264   1 h    0.893 --   262 o    0.851
   265   8 o    1.840 --   267 h    0.868   266 h    0.816
   266   1 h    0.870 --   265 o    0.816
   267   1 h    0.896 --   265 o    0.868
   268   8 o    1.824 --   270 h    0.873   269 h    0.836
   269   1 h    0.879 --   268 o    0.836
   270   1 h    0.892 --   268 o    0.873
   271   8 o    1.900 --   272 h    0.827   273 h    0.783
   272   1 h    0.894 --   271 o    0.827
   273   1 h    0.872 --   271 o    0.783
   274   8 o    1.864 --   275 h    0.836   276 h    0.825
   275   1 h    0.888 --   274 o    0.836
   276   1 h    0.880 --   274 o    0.825
   277   8 o    1.857 --   279 h    0.821   278 h    0.794
   278   1 h    0.879 --   277 o    0.794
   279   1 h    0.885 --   277 o    0.821
   280   8 o    1.878 --   281 h    0.842   282 h    0.826
   281   1 h    0.890 --   280 o    0.842
   282   1 h    0.885 --   280 o    0.826
   283   8 o    1.862 --   285 h    0.850   284 h    0.834
   284   1 h    0.888 --   283 o    0.834
   285   1 h    0.884 --   283 o    0.850
   286   8 o    1.855 --   288 h    0.827   287 h    0.808
   287   1 h    0.872 --   286 o    0.808
   288   1 h    0.884 --   286 o    0.827
   289   8 o    1.894 --   290 h    0.837   291 h    0.806
   290   1 h    0.877 --   289 o    0.837
   291   1 h    0.874 --   289 o    0.806
   292   8 o    1.828 --   293 h    0.890   294 h    0.756
   293   1 h    0.904 --   292 o    0.890
   294   1 h    0.865 --   292 o    0.756
   295   8 o    1.847 --   297 h    0.883   296 h    0.836
   296   1 h    0.893 --   295 o    0.836
   297   1 h    0.900 --   295 o    0.883
   298   8 o    1.837 --   300 h    0.830   299 h    0.811
   299   1 h    0.876 --   298 o    0.811
   300   1 h    0.885 --   298 o    0.830
   301   8 o    1.868 --   303 h    0.864   302 h    0.773
   302   1 h    0.865 --   301 o    0.773
   303   1 h    0.896 --   301 o    0.864
   304   8 o    1.815 --   305 h    0.850   306 h    0.833
   305   1 h    0.885 --   304 o    0.850
   306   1 h    0.885 --   304 o    0.833
   307   8 o    1.872 --   309 h    0.839   308 h    0.791
   308   1 h    0.868 --   307 o    0.791
   309   1 h    0.887 --   307 o    0.839
   310   8 o    1.822 --   312 h    0.863   311 h    0.846
   311   1 h    0.886 --   310 o    0.846
   312   1 h    0.890 --   310 o    0.863
   313   8 o    1.842 --   315 h    0.885   314 h    0.827
   314   1 h    0.877 --   313 o    0.827
   315   1 h    0.893 --   313 o    0.885
   316   8 o    1.872 --   318 h    0.832   317 h    0.803
   317   1 h    0.890 --   316 o    0.803
   318   1 h    0.888 --   316 o    0.832
   319   8 o    1.875 --   321 h    0.826   320 h    0.805
   320   1 h    0.872 --   319 o    0.805
   321   1 h    0.893 --   319 o    0.826
   322   8 o    1.842 --   323 h    0.849   324 h    0.785
   323   1 h    0.897 --   322 o    0.849
   324   1 h    0.867 --   322 o    0.785
   325   8 o    1.839 --   326 h    0.836   327 h    0.835
   326   1 h    0.886 --   325 o    0.836
   327   1 h    0.885 --   325 o    0.835
   328   8 o    1.810 --   330 h    0.868   329 h    0.795
   329   1 h    0.871 --   328 o    0.795
   330   1 h    0.898 --   328 o    0.868
   331   8 o    1.803 --   333 h    0.837   332 h    0.794
   332   1 h    0.885 --   331 o    0.794
   333   1 h    0.897 --   331 o    0.837
   334   8 o    1.868 --   336 h    0.828   335 h    0.818
   335   1 h    0.886 --   334 o    0.818
   336   1 h    0.874 --   334 o    0.828
   337   8 o    1.810 --   339 h    0.868   338 h    0.820
   338   1 h    0.875 --   337 o    0.820
   339   1 h    0.894 --   337 o    0.868
   340   8 o    1.827 --   341 h    0.858   342 h    0.826
   341   1 h    0.886 --   340 o    0.858
   342   1 h    0.889 --   340 o    0.826
   343   8 o    1.845 --   344 h    0.820   345 h    0.812
   344   1 h    0.886 --   343 o    0.820
   345   1 h    0.871 --   343 o    0.812
   346   8 o    1.886 --   347 h    0.844   348 h    0.813
   347   1 h    0.886 --   346 o    0.844
   348   1 h    0.878 --   346 o    0.813
   349   8 o    1.847 --   351 h    0.839   350 h    0.805
   350   1 h    0.866 --   349 o    0.805
   351   1 h    0.887 --   349 o    0.839
   352   8 o    1.845 --   353 h    0.861   354 h    0.807
   353   1 h    0.891 --   352 o    0.861
   354   1 h    0.880 --   352 o    0.807
   355   8 o    1.854 --   357 h    0.846   356 h    0.809
   356   1 h    0.891 --   355 o    0.809
   357   1 h    0.894 --   355 o    0.846
   358   8 o    1.858 --   359 h    0.825   360 h    0.810
   359   1 h    0.887 --   358 o    0.825
   360   1 h    0.873 --   358 o    0.810
   361   8 o    1.852 --   362 h    0.896   363 h    0.810
   362   1 h    0.902 --   361 o    0.896
   363   1 h    0.874 --   361 o    0.810
   364   8 o    1.867 --   366 h    0.843   365 h    0.795
[...]
   370   8 o    1.853 --   372 h    0.865   371 h    0.789
   371   1 h    0.866 --   370 o    0.789
   372   1 h    0.895 --   370 o    0.865
   373   8 o    1.827 --   375 h    0.867   374 h    0.847
   374   1 h    0.885 --   373 o    0.847
   375   1 h    0.890 --   373 o    0.867
   376   8 o    1.797 --   378 h    0.834   377 h    0.818
   377   1 h    0.888 --   376 o    0.818
   378   1 h    0.890 --   376 o    0.834
   379   8 o    1.825 --   380 h    0.859   381 h    0.845
   380   1 h    0.897 --   379 o    0.859
   381   1 h    0.896 --   379 o    0.845
   382   8 o    1.816 --   383 h    0.888   384 h    0.849
   383   1 h    0.899 --   382 o    0.888
   384   1 h    0.881 --   382 o    0.849
   385   8 o    1.835 --   386 h    0.863   387 h    0.810
   386   1 h    0.892 --   385 o    0.863
   387   1 h    0.878 --   385 o    0.810
   388   8 o    1.826 --   389 h    0.884   390 h    0.825
   389   1 h    0.899 --   388 o    0.884
   390   1 h    0.881 --   388 o    0.825
   391   8 o    1.841 --   393 h    0.827   392 h    0.782
   392   1 h    0.873 --   391 o    0.782
   393   1 h    0.895 --   391 o    0.827
   394   8 o    1.889 --   396 h    0.836   395 h    0.785
   395   1 h    0.864 --   394 o    0.785
   396   1 h    0.888 --   394 o    0.836
   397   8 o    1.842 --   399 h    0.793   398 h    0.779
   398   1 h    0.869 --   397 o    0.779
   399   1 h    0.872 --   397 o    0.793
   400   8 o    1.827 --   402 h    0.862   401 h    0.836
   401   1 h    0.878 --   400 o    0.836
   402   1 h    0.894 --   400 o    0.862
   403   8 o    1.872 --   404 h    0.845   405 h    0.758
   404   1 h    0.897 --   403 o    0.845
   405   1 h    0.864 --   403 o    0.758   451 o    0.100
   406   8 o    1.852 --   408 h    0.843   407 h    0.824
   407   1 h    0.882 --   406 o    0.824
   408   1 h    0.890 --   406 o    0.843
   409   8 o    1.834 --   410 h    0.871   411 h    0.787
   410   1 h    0.897 --   409 o    0.871
   411   1 h    0.865 --   409 o    0.787
   412   8 o    1.900 --   413 h    0.821   414 h    0.803
   413   1 h    0.887 --   412 o    0.821
   414   1 h    0.887 --   412 o    0.803
   415   8 o    1.807 --   416 h    0.877   417 h    0.827
   416   1 h    0.897 --   415 o    0.877
   417   1 h    0.885 --   415 o    0.827
   418   8 o    1.812 --   420 h    0.835   419 h    0.833
   419   1 h    0.888 --   418 o    0.833
   420   1 h    0.894 --   418 o    0.835
   421   8 o    1.822 --   422 h    0.867   423 h    0.815
   422   1 h    0.902 --   421 o    0.867
   423   1 h    0.888 --   421 o    0.815
   424   8 o    1.820 --   425 h    0.841   426 h    0.830
   425   1 h    0.887 --   424 o    0.841
   426   1 h    0.886 --   424 o    0.830
   427   8 o    1.866 --   429 h    0.805   428 h    0.799
   428   1 h    0.871 --   427 o    0.799
   429   1 h    0.871 --   427 o    0.805
   430   8 o    1.864 --   431 h    0.814   432 h    0.785
   431   1 h    0.877 --   430 o    0.814
   432   1 h    0.872 --   430 o    0.785
   433   8 o    1.820 --   435 h    0.870   434 h    0.797
   434   1 h    0.875 --   433 o    0.797
   435   1 h    0.897 --   433 o    0.870
   436   8 o    1.843 --   438 h    0.836   437 h    0.802
   437   1 h    0.877 --   436 o    0.802
   438   1 h    0.888 --   436 o    0.836
   439   8 o    1.864 --   441 h    0.885   440 h    0.810
   440   1 h    0.881 --   439 o    0.810
   441   1 h    0.899 --   439 o    0.885
   442   8 o    1.842 --   444 h    0.866   443 h    0.811
   443   1 h    0.885 --   442 o    0.811
   444   1 h    0.892 --   442 o    0.866
   445   8 o    1.869 --   447 h    0.810   446 h    0.791
   446   1 h    0.872 --   445 o    0.791
   447   1 h    0.885 --   445 o    0.810
   448   8 o    1.801 --   449 h    0.854   450 h    0.853
   449   1 h    0.890 --   448 o    0.854
   450   1 h    0.884 --   448 o    0.853
   451   8 o    1.872 --   453 h    0.793   452 h    0.783   405 h    0.100
   452   1 h    0.872 --   451 o    0.783
   453   1 h    0.879 --   451 o    0.793
   454   8 o    1.878 --   456 h    0.821   455 h    0.798
   455   1 h    0.864 --   454 o    0.798
   456   1 h    0.889 --   454 o    0.821
   457   8 o    1.854 --   458 h    0.823   459 h    0.801
   458   1 h    0.890 --   457 o    0.823
   459   1 h    0.879 --   457 o    0.801
   460   8 o    1.810 --   461 h    0.868   462 h    0.808
   461   1 h    0.897 --   460 o    0.868
   462   1 h    0.886 --   460 o    0.808
   463   8 o    1.852 --   465 h    0.866   464 h    0.833
   464   1 h    0.888 --   463 o    0.833
   465   1 h    0.892 --   463 o    0.866
   466   8 o    1.881 --   468 h    0.810   467 h    0.806
   467   1 h    0.875 --   466 o    0.806
   468   1 h    0.886 --   466 o    0.810
   469   8 o    1.851 --   471 h    0.837   470 h    0.837
   470   1 h    0.892 --   469 o    0.837
   471   1 h    0.881 --   469 o    0.837
   472   8 o    1.840 --   473 h    0.868   474 h    0.827
   473   1 h    0.893 --   472 o    0.868
   474   1 h    0.876 --   472 o    0.827
   475   8 o    1.840 --   477 h    0.861   476 h    0.815
   476   1 h    0.874 --   475 o    0.815
   477   1 h    0.891 --   475 o    0.861
   478   8 o    1.833 --   480 h    0.871   479 h    0.820
   479   1 h    0.879 --   478 o    0.820
   480   1 h    0.892 --   478 o    0.871
   481   8 o    1.844 --   482 h    0.859   483 h    0.836
   482   1 h    0.902 --   481 o    0.859
   483   1 h    0.884 --   481 o    0.836
   484   8 o    1.849 --   486 h    0.892   485 h    0.779
   485   1 h    0.860 --   484 o    0.779
   486   1 h    0.906 --   484 o    0.892
   487   8 o    1.806 --   489 h    0.886   488 h    0.809
   488   1 h    0.868 --   487 o    0.809
   489   1 h    0.903 --   487 o    0.886
   490   8 o    1.859 --   492 h    0.827   491 h    0.820
   491   1 h    0.875 --   490 o    0.820
   492   1 h    0.894 --   490 o    0.827
   493   8 o    1.861 --   494 h    0.845   495 h    0.822
   494   1 h    0.898 --   493 o    0.845
   495   1 h    0.879 --   493 o    0.822
   496   8 o    1.838 --   498 h    0.806   497 h    0.797
   497   1 h    0.880 --   496 o    0.797
   498   1 h    0.876 --   496 o    0.806
   499   8 o    1.802 --   501 h    0.861   500 h    0.816
   500   1 h    0.881 --   499 o    0.816
   501   1 h    0.891 --   499 o    0.861
   502   8 o    1.846 --   503 h    0.869   504 h    0.813
   503   1 h    0.895 --   502 o    0.869
   504   1 h    0.881 --   502 o    0.813
   505   8 o    1.852 --   506 h    0.853   507 h    0.824
   506   1 h    0.893 --   505 o    0.853
   507   1 h    0.884 --   505 o    0.824
   508   8 o    1.832 --   510 h    0.853   509 h    0.835
   509   1 h    0.889 --   508 o    0.835
   510   1 h    0.886 --   508 o    0.853
   511   8 o    1.845 --   513 h    0.842   512 h    0.825
   512   1 h    0.894 --   511 o    0.825
   513   1 h    0.887 --   511 o    0.842
   514   8 o    1.798 --   515 h    0.877   516 h    0.835
   515   1 h    0.895 --   514 o    0.877
   516   1 h    0.885 --   514 o    0.835
   517   8 o    1.815 --   518 h    0.837   519 h    0.834
   518   1 h    0.893 --   517 o    0.837
   519   1 h    0.882 --   517 o    0.834
   520   8 o    1.839 --   522 h    0.892   521 h    0.812
   521   1 h    0.868 --   520 o    0.812
   522   1 h    0.900 --   520 o    0.892
   523   8 o    1.838 --   525 h    0.830   524 h    0.820
   524   1 h    0.884 --   523 o    0.820
   525   1 h    0.888 --   523 o    0.830
   526   8 o    1.842 --   528 h    0.900   527 h    0.784
   527   1 h    0.883 --   526 o    0.784
   528   1 h    0.907 --   526 o    0.900
   529   8 o    1.869 --   531 h    0.831   530 h    0.831
   530   1 h    0.893 --   529 o    0.831
   531   1 h    0.875 --   529 o    0.831
   532   8 o    1.831 --   534 h    0.848   533 h    0.842
   533   1 h    0.882 --   532 o    0.842
   534   1 h    0.886 --   532 o    0.848
   535   8 o    1.820 --   536 h    0.871   537 h    0.841
   536   1 h    0.890 --   535 o    0.871
   537   1 h    0.879 --   535 o    0.841
   538   8 o    1.823 --   539 h    0.876   540 h    0.817
   539   1 h    0.896 --   538 o    0.876
   540   1 h    0.872 --   538 o    0.817
   541   8 o    1.822 --   542 h    0.813   543 h    0.801
   542   1 h    0.889 --   541 o    0.813
   543   1 h    0.876 --   541 o    0.801
   544   8 o    1.851 --   545 h    0.820   546 h    0.789
   545   1 h    0.884 --   544 o    0.820
   546   1 h    0.870 --   544 o    0.789
   547   8 o    1.863 --   548 h    0.827   549 h    0.811
   548   1 h    0.887 --   547 o    0.827
   549   1 h    0.885 --   547 o    0.811
   550   8 o    1.793 --   551 h    0.854   552 h    0.841
   551   1 h    0.891 --   550 o    0.854
   552   1 h    0.891 --   550 o    0.841
   553   8 o    1.834 --   554 h    0.857   555 h    0.857
   554   1 h    0.885 --   553 o    0.857
   555   1 h    0.885 --   553 o    0.857
   556   8 o    1.832 --   558 h    0.850   557 h    0.831
   557   1 h    0.882 --   556 o    0.831
   558   1 h    0.892 --   556 o    0.850
   559   8 o    1.849 --   561 h    0.901   560 h    0.776
   560   1 h    0.874 --   559 o    0.776
   561   1 h    0.905 --   559 o    0.901
   562   8 o    1.838 --   563 h    0.891   564 h    0.805
   563   1 h    0.906 --   562 o    0.891
   564   1 h    0.875 --   562 o    0.805
   565   8 o    1.829 --   567 h    0.853   566 h    0.810
   566   1 h    0.872 --   565 o    0.810
   567   1 h    0.894 --   565 o    0.853
   568   8 o    1.781 --   570 h    0.875   569 h    0.845
   569   1 h    0.891 --   568 o    0.845
   570   1 h    0.897 --   568 o    0.875
   571   8 o    1.857 --   572 h    0.884   573 h    0.802
   572   1 h    0.901 --   571 o    0.884
   573   1 h    0.862 --   571 o    0.802
   574   8 o    1.809 --   575 h    0.858   576 h    0.852
   575   1 h    0.889 --   574 o    0.858
   576   1 h    0.883 --   574 o    0.852
   577   8 o    1.839 --   578 h    0.835   579 h    0.822
   578   1 h    0.892 --   577 o    0.835
   579   1 h    0.876 --   577 o    0.822
   580   8 o    1.864 --   582 h    0.893   581 h    0.827
   581   1 h    0.884 --   580 o    0.827
   582   1 h    0.903 --   580 o    0.893
   583   8 o    1.799 --   584 h    0.861   585 h    0.798
   584   1 h    0.898 --   583 o    0.861
   585   1 h    0.869 --   583 o    0.798
   586   8 o    1.816 --   587 h    0.896   588 h    0.782
   587   1 h    0.904 --   586 o    0.896
   588   1 h    0.868 --   586 o    0.782
   589   8 o    1.831 --   591 h    0.876   590 h    0.815
   590   1 h    0.877 --   589 o    0.815
   591   1 h    0.894 --   589 o    0.876
   592   8 o    1.826 --   594 h    0.898   593 h    0.786
   593   1 h    0.872 --   592 o    0.786
   594   1 h    0.905 --   592 o    0.898
   595   8 o    1.811 --   596 h    0.899   597 h    0.804
   596   1 h    0.908 --   595 o    0.899
   597   1 h    0.869 --   595 o    0.804
   598   8 o    1.835 --   599 h    0.840   600 h    0.793
   599   1 h    0.889 --   598 o    0.840
   600   1 h    0.870 --   598 o    0.793
   601   8 o    1.826 --   602 h    0.853   603 h    0.806
   602   1 h    0.895 --   601 o    0.853
   603   1 h    0.872 --   601 o    0.806
   604   8 o    1.835 --   606 h    0.897   605 h    0.785
   605   1 h    0.873 --   604 o    0.785
   606   1 h    0.901 --   604 o    0.897
   607   8 o    1.841 --   609 h    0.831   608 h    0.829
   608   1 h    0.889 --   607 o    0.829
   609   1 h    0.886 --   607 o    0.831
   610   8 o    1.826 --   611 h    0.866   612 h    0.791
   611   1 h    0.896 --   610 o    0.866
   612   1 h    0.877 --   610 o    0.791
   613   8 o    1.823 --   614 h    0.861   615 h    0.844
   614   1 h    0.891 --   613 o    0.861
   615   1 h    0.883 --   613 o    0.844
   616   8 o    1.834 --   618 h    0.860   617 h    0.837
   617   1 h    0.888 --   616 o    0.837
   618   1 h    0.887 --   616 o    0.860
   619   8 o    1.849 --   620 h    0.828   621 h    0.815
   620   1 h    0.873 --   619 o    0.828
   621   1 h    0.889 --   619 o    0.815
   622   8 o    1.805 --   623 h    0.854   624 h    0.837
   623   1 h    0.888 --   622 o    0.854
   624   1 h    0.885 --   622 o    0.837
   625   8 o    1.803 --   627 h    0.868   626 h    0.829
   626   1 h    0.880 --   625 o    0.829
   627   1 h    0.894 --   625 o    0.868
   628   8 o    1.813 --   630 h    0.839   629 h    0.792
   629   1 h    0.870 --   628 o    0.792
   630   1 h    0.901 --   628 o    0.839
   631   8 o    1.887 --   633 h    0.837   632 h    0.801
   632   1 h    0.871 --   631 o    0.801
   633   1 h    0.877 --   631 o    0.837
   634   8 o    1.839 --   635 h    0.901   636 h    0.777
   635   1 h    0.907 --   634 o    0.901
   636   1 h    0.871 --   634 o    0.777
   637   8 o    1.821 --   638 h    0.889   639 h    0.764
   638   1 h    0.901 --   637 o    0.889
   639   1 h    0.865 --   637 o    0.764
   640   8 o    1.857 --   642 h    0.838   641 h    0.808
   641   1 h    0.863 --   640 o    0.808
   642   1 h    0.894 --   640 o    0.838
   643   8 o    1.808 --   645 h    0.899   644 h    0.774
   644   1 h    0.867 --   643 o    0.774
   645   1 h    0.907 --   643 o    0.899
   646   8 o    1.852 --   647 h    0.893   648 h    0.789
   647   1 h    0.898 --   646 o    0.893
   648   1 h    0.872 --   646 o    0.789
   649   8 o    1.860 --   650 h    0.880   651 h    0.830
   650   1 h    0.895 --   649 o    0.880
   651   1 h    0.881 --   649 o    0.830
   652   8 o    1.816 --   653 h    0.843   654 h    0.828
   653   1 h    0.874 --   652 o    0.843
   654   1 h    0.888 --   652 o    0.828
   655   8 o    1.837 --   657 h    0.851   656 h    0.811
   656   1 h    0.887 --   655 o    0.811
   657   1 h    0.892 --   655 o    0.851
   658   8 o    1.838 --   659 h    0.880   660 h    0.776
   659   1 h    0.901 --   658 o    0.880
   660   1 h    0.864 --   658 o    0.776
   661   8 o    1.830 --   662 h    0.879   663 h    0.855
   662   1 h    0.891 --   661 o    0.879
   663   1 h    0.885 --   661 o    0.855
   664   8 o    1.844 --   666 h    0.814   665 h    0.802
   665   1 h    0.869 --   664 o    0.802
   666   1 h    0.879 --   664 o    0.814
   667   8 o    1.816 --   669 h    0.894   668 h    0.807
   668   1 h    0.872 --   667 o    0.807
   669   1 h    0.900 --   667 o    0.894
   670   8 o    1.838 --   671 h    0.875   672 h    0.790
   671   1 h    0.898 --   670 o    0.875
   672   1 h    0.868 --   670 o    0.790
   673   8 o    1.830 --   675 h    0.833   674 h    0.805
   674   1 h    0.877 --   673 o    0.805
   675   1 h    0.888 --   673 o    0.833
   676   8 o    1.862 --   678 h    0.847   677 h    0.798
   677   1 h    0.874 --   676 o    0.798
   678   1 h    0.892 --   676 o    0.847
   679   8 o    1.846 --   681 h    0.860   680 h    0.835
   680   1 h    0.886 --   679 o    0.835
   681   1 h    0.893 --   679 o    0.860
   682   8 o    1.841 --   684 h    0.834   683 h    0.810
   683   1 h    0.881 --   682 o    0.810
   684   1 h    0.883 --   682 o    0.834
   685   8 o    1.889 --   686 h    0.827   687 h    0.815
   686   1 h    0.876 --   685 o    0.827
   687   1 h    0.886 --   685 o    0.815
   688   8 o    1.883 --   689 h    0.804   690 h    0.772
   689   1 h    0.879 --   688 o    0.804
   690   1 h    0.879 --   688 o    0.772   199 o    0.103
   691   8 o    1.820 --   692 h    0.837   693 h    0.829
   692   1 h    0.888 --   691 o    0.837
   693   1 h    0.880 --   691 o    0.829
   694   8 o    1.874 --   696 h    0.808   695 h    0.798
   695   1 h    0.875 --   694 o    0.798
   696   1 h    0.876 --   694 o    0.808
   697   8 o    1.848 --   698 h    0.848   699 h    0.809
   698   1 h    0.897 --   697 o    0.848
   699   1 h    0.870 --   697 o    0.809
   700   8 o    1.809 --   702 h    0.834   701 h    0.827
   701   1 h    0.881 --   700 o    0.827
   702   1 h    0.887 --   700 o    0.834
   703   8 o    1.835 --   705 h    0.847   704 h    0.829
   704   1 h    0.886 --   703 o    0.829
   705   1 h    0.889 --   703 o    0.847
   706   8 o    1.842 --   707 h    0.890   708 h    0.800
   707   1 h    0.903 --   706 o    0.890
   708   1 h    0.875 --   706 o    0.800
   709   8 o    1.815 --   711 h    0.892   710 h    0.788
   710   1 h    0.870 --   709 o    0.788
   711   1 h    0.905 --   709 o    0.892
   712   8 o    1.841 --   713 h    0.851   714 h    0.820
   713   1 h    0.897 --   712 o    0.851
   714   1 h    0.877 --   712 o    0.820
   715   8 o    1.868 --   716 h    0.844   717 h    0.814
   716   1 h    0.893 --   715 o    0.844
   717   1 h    0.874 --   715 o    0.814
   718   8 o    1.856 --   720 h    0.870   719 h    0.817
   719   1 h    0.884 --   718 o    0.817
   720   1 h    0.896 --   718 o    0.870
   721   8 o    1.830 --   723 h    0.849   722 h    0.830
   722   1 h    0.892 --   721 o    0.830
   723   1 h    0.889 --   721 o    0.849
   724   8 o    1.890 --   725 h    0.831   726 h    0.792
   725   1 h    0.892 --   724 o    0.831
   726   1 h    0.878 --   724 o    0.792
   727   8 o    1.877 --   729 h    0.864   728 h    0.805
   728   1 h    0.864 --   727 o    0.805
   729   1 h    0.893 --   727 o    0.864
   730   8 o    1.837 --   731 h    0.891   732 h    0.810
   731   1 h    0.896 --   730 o    0.891
   732   1 h    0.877 --   730 o    0.810
   733   8 o    1.821 --   735 h    0.851   734 h    0.832
   734   1 h    0.882 --   733 o    0.832
   735   1 h    0.890 --   733 o    0.851
   736   8 o    1.847 --   737 h    0.858   738 h    0.831
   737   1 h    0.885 --   736 o    0.858
   738   1 h    0.885 --   736 o    0.831
   739   8 o    1.873 --   741 h    0.825   740 h    0.792
   740   1 h    0.865 --   739 o    0.792
   741   1 h    0.881 --   739 o    0.825
   742   8 o    1.820 --   744 h    0.867   743 h    0.763
   743   1 h    0.865 --   742 o    0.763
   744   1 h    0.895 --   742 o    0.867
   745   8 o    1.851 --   746 h    0.822   747 h    0.806
   746   1 h    0.887 --   745 o    0.822
   747   1 h    0.881 --   745 o    0.806
   748   8 o    1.816 --   750 h    0.847   749 h    0.822
   749   1 h    0.875 --   748 o    0.822
   750   1 h    0.887 --   748 o    0.847
   751   8 o    1.841 --   753 h    0.881   752 h    0.770
   752   1 h    0.867 --   751 o    0.770
   753   1 h    0.892 --   751 o    0.881
   754   8 o    1.832 --   755 h    0.880   756 h    0.828
   755   1 h    0.896 --   754 o    0.880
   756   1 h    0.883 --   754 o    0.828
 ---------------------------------------------------------------------------

Topologies differ in total number of bonds
Writing topology from bond orders to xtbtopo.mol

molecular dipole:
                 x           y           z       tot (Debye)
 q only:       -1.590      -1.141       4.181
   full:       -1.763      -1.290       5.355      14.700
molecular quadrupole (traceless):
                xx          xy          yy          xz          yz          zz
 q only:       27.583      49.438      21.619     112.072      52.389     -49.202
  q+dip:       25.224      58.414      30.059     137.144      65.317     -55.283
   full:       26.180      58.006      28.390     136.789      65.489     -54.570


           -------------------------------------------------
          | TOTAL ENERGY            -1283.607038456718 Eh   |
          | GRADIENT NORM               0.107747708684 Eh/α |
          | HOMO-LUMO GAP               7.900223958274 eV   |
           -------------------------------------------------

------------------------------------------------------------------------
 * finished run on 2022/11/24 at 09:28:07.747     
------------------------------------------------------------------------
 total:
 * wall-time:     0 d,  0 h,  0 min, 21.216 sec
 *  cpu-time:     0 d,  0 h,  0 min, 33.955 sec
 * ratio c/w:     1.600 speedup
 SCF:
 * wall-time:     0 d,  0 h,  0 min, 20.204 sec
 *  cpu-time:     0 d,  0 h,  0 min, 32.236 sec
 * ratio c/w:     1.596 speedup

