      -----------------------------------------------------------      
     |                   =====================                   |     
     |                           x T B                           |     
     |                   =====================                   |     
     |                         S. Grimme                         |     
     |          Mulliken Center for Theoretical Chemistry        |     
     |                    University of Bonn                     |     
      -----------------------------------------------------------      

   * xtb version 6.5.1 (579679a) compiled by 'ehlert@majestix' on 2022-07-11

   xtb is free software: you can redistribute it and/or modify it under
   the terms of the GNU Lesser General Public License as published by
   the Free Software Foundation, either version 3 of the License, or
   (at your option) any later version.
   
   xtb is distributed in the hope that it will be useful,
   but WITHOUT ANY WARRANTY; without even the implied warranty of
   MERCHANTABILITY or FITNESS FOR A PARTICULAR PURPOSE.  See the
   GNU Lesser General Public License for more details.
   
   Cite this work as:
   * C. Bannwarth, E. Caldeweyher, S. Ehlert, A. Hansen, P. Pracht,
     J. Seibert, S. Spicher, S. Grimme, WIREs Comput. Mol. Sci., 2020, 11,
     e01493. DOI: 10.1002/wcms.1493
   
   for GFN2-xTB:
   * C. Bannwarth, S. Ehlert and S. Grimme., J. Chem. Theory Comput., 2019,
     15, 1652-1671. DOI: 10.1021/acs.jctc.8b01176
   for GFN1-xTB:
   * S. Grimme, C. Bannwarth, P. Shushkov, J. Chem. Theory Comput., 2017,
     13, 1989-2009. DOI: 10.1021/acs.jctc.7b00118
   for GFN0-xTB:
   * P. Pracht, E. Caldeweyher, S. Ehlert, S. Grimme, ChemRxiv, 2019, preprint.
     DOI: 10.26434/chemrxiv.8326202.v1
   for GFN-FF:
   * S. Spicher and S. Grimme, Angew. Chem. Int. Ed., 2020, 59, 15665-15673.
     DOI: 10.1002/anie.202004239
   
   for ALPB and GBSA implicit solvation:
   * S. Ehlert, M. Stahn, S. Spicher, S. Grimme, J. Chem. Theory Comput.,
     2021, 17, 4250-4261. DOI: 10.1021/acs.jctc.1c00471
   
   for DFT-D4:
   * E. Caldeweyher, C. Bannwarth and S. Grimme, J. Chem. Phys., 2017,
     147, 034112. DOI: 10.1063/1.4993215
   * E. Caldeweyher, S. Ehlert, A. Hansen, H. Neugebauer, S. Spicher,
     C. Bannwarth and S. Grimme, J. Chem. Phys., 2019, 150, 154122.
     DOI: 10.1063/1.5090222
   * E. Caldeweyher, J.-M. Mewes, S. Ehlert and S. Grimme, Phys. Chem. Chem. Phys.
     2020, 22, 8499-8512. DOI: 10.1039/D0CP00502A
   
   for sTDA-xTB:
   * S. Grimme and C. Bannwarth, J. Chem. Phys., 2016, 145, 054103.
     DOI: 10.1063/1.4959605
   
   in the mass-spec context:
   * V. Asgeirsson, C. Bauer and S. Grimme, Chem. Sci., 2017, 8, 4879.
     DOI: 10.1039/c7sc00601b
   * J. Koopman and S. Grimme, ACS Omega 2019, 4, 12, 15120-15133.
     DOI: 10.1021/acsomega.9b02011
   
   for metadynamics refer to:
   * S. Grimme, J. Chem. Theory Comput., 2019, 155, 2847-2862
     DOI: 10.1021/acs.jctc.9b00143
   
   for SPH calculations refer to:
   * S. Spicher and S. Grimme, J. Chem. Theory Comput., 2021, 17, 1701-1714
     DOI: 10.1021/acs.jctc.0c01306
   
   with help from (in alphabetical order)
   P. Atkinson, C. Bannwarth, F. Bohle, G. Brandenburg, E. Caldeweyher
   M. Checinski, S. Dohm, S. Ehlert, S. Ehrlich, I. Gerasimov, C. Hölzer
   A. Katbashev, J. Koopman, C. Lavigne, S. Lehtola, F. März, M. Müller,
   F. Musil, H. Neugebauer, J. Pisarek, C. Plett, P. Pracht, F. Pultar,
   J. Seibert, P. Shushkov, S. Spicher, M. Stahn, M. Steiner, T. Strunk,
   J. Stückrath, T. Rose, and J. Unsleber
   
 * started run on 2022/11/24 at 09:28:10.077     

           -------------------------------------------------
          |                Calculation Setup                |
           -------------------------------------------------

          program call               : xtb solvent_cluster.coord --gfn2 --sp --lmo --chrg 0
          hostname                   : cn0341
          coordinate file            : solvent_cluster.coord
          omp threads                :                     2

   ID    Z sym.   atoms
    1    8 o      1, 4, 7, 10, 13, 16, 19, 22, 25, 28, 31, 34, 37, 40, 43,
                  46, 49, 52, 55, 58, 61, 64, 67, 70, 73, 76, 79, 82, 85, 88,
                  91, 94, 97, 100, 103, 106, 109, 112, 115, 118, 121, 124,
                  127, 130, 133, 136, 139, 142, 145, 148, 151, 154, 157, 160,
                  163, 166, 169, 172, 175, 178, 181, 184, 187, 190, 193, 196,
                  199, 202, 205, 208, 211, 214, 217, 220, 223, 226, 229, 232,
                  235, 238, 241, 244, 247, 250, 253, 256, 259, 262, 265, 268,
                  271, 274, 277, 280, 283, 286, 289, 292, 295, 298, 301, 304,
                  307, 310, 313, 316, 319, 322, 325, 328, 331, 334, 337, 340,
                  343, 346, 349, 352, 355, 358, 361, 364, 367, 370, 373, 376,
                  379, 382, 385, 388, 391, 394, 397, 400, 403, 406, 409, 412,
                  415, 418, 421, 424, 427, 430, 433, 436, 439, 442, 445, 448,
                  451, 454, 457, 460, 463, 466, 469, 472, 475, 478, 481, 484,
                  487, 490, 493, 496, 499, 502, 505, 508, 511, 514, 517, 520,
                  523, 526, 529, 532, 535, 538, 541, 544, 547, 550, 553, 556,
                  559, 562, 565, 568, 571, 574, 577, 580, 583, 586, 589, 592,
                  595, 598, 601, 604, 607, 610, 613, 616, 619, 622, 625, 628,
                  631, 634, 637, 640, 643, 646, 649, 652, 655, 658, 661, 664,
                  667, 670, 673, 676, 679, 682, 685, 688, 691, 694, 697, 700,
                  703, 706, 709, 712, 715, 718, 721, 724, 727, 730, 733, 736,
                  739, 742, 745, 748, 751, 754
    2    1 h      2, 3, 5, 6, 8, 9, 11, 12, 14, 15, 17, 18, 20, 21, 23, 24,
                  26, 27, 29, 30, 32, 33, 35, 36, 38, 39, 41, 42, 44, 45, 47,
                  48, 50, 51, 53, 54, 56, 57, 59, 60, 62, 63, 65, 66, 68, 69,
                  71, 72, 74, 75, 77, 78, 80, 81, 83, 84, 86, 87, 89, 90, 92,
                  93, 95, 96, 98, 99, 101, 102, 104, 105, 107, 108, 110, 111,
                  113, 114, 116, 117, 119, 120, 122, 123, 125, 126, 128, 129,
                  131, 132, 134, 135, 137, 138, 140, 141, 143, 144, 146, 147,
                  149, 150, 152, 153, 155, 156, 158, 159, 161, 162, 164, 165,
                  167, 168, 170, 171, 173, 174, 176, 177, 179, 180, 182, 183,
                  185, 186, 188, 189, 191, 192, 194, 195, 197, 198, 200, 201,
                  203, 204, 206, 207, 209, 210, 212, 213, 215, 216, 218, 219,
                  221, 222, 224, 225, 227, 228, 230, 231, 233, 234, 236, 237,
                  239, 240, 242, 243, 245, 246, 248, 249, 251, 252, 254, 255,
                  257, 258, 260, 261, 263, 264, 266, 267, 269, 270, 272, 273,
                  275, 276, 278, 279, 281, 282, 284, 285, 287, 288, 290, 291,
                  293, 294, 296, 297, 299, 300, 302, 303, 305, 306, 308, 309,
                  311, 312, 314, 315, 317, 318, 320, 321, 323, 324, 326, 327,
                  329, 330, 332, 333, 335, 336, 338, 339, 341, 342, 344, 345,
                  347, 348, 350, 351, 353, 354, 356, 357, 359, 360, 362, 363,
                  365, 366, 368, 369, 371, 372, 374, 375, 377, 378, 380, 381,
                  383, 384, 386, 387, 389, 390, 392, 393, 395, 396, 398, 399,
                  401, 402, 404, 405, 407, 408, 410, 411, 413, 414, 416, 417,
                  419, 420, 422, 423, 425, 426, 428, 429, 431, 432, 434, 435,
                  437, 438, 440, 441, 443, 444, 446, 447, 449, 450, 452, 453,
                  455, 456, 458, 459, 461, 462, 464, 465, 467, 468, 470, 471,
                  473, 474, 476, 477, 479, 480, 482, 483, 485, 486, 488, 489,
                  491, 492, 494, 495, 497, 498, 500, 501, 503, 504, 506, 507,
                  509, 510, 512, 513, 515, 516, 518, 519, 521, 522, 524, 525,
                  527, 528, 530, 531, 533, 534, 536, 537, 539, 540, 542, 543,
                  545, 546, 548, 549, 551, 552, 554, 555, 557, 558, 560, 561,
                  563, 564, 566, 567, 569, 570, 572, 573, 575, 576, 578, 579,
                  581, 582, 584, 585, 587, 588, 590, 591, 593, 594, 596, 597,
                  599, 600, 602, 603, 605, 606, 608, 609, 611, 612, 614, 615,
                  617, 618, 620, 621, 623, 624, 626, 627, 629, 630, 632, 633,
                  635, 636, 638, 639, 641, 642, 644, 645, 647, 648, 650, 651,
                  653, 654, 656, 657, 659, 660, 662, 663, 665, 666, 668, 669,
                  671, 672, 674, 675, 677, 678, 680, 681, 683, 684, 686, 687,
                  689, 690, 692, 693, 695, 696, 698, 699, 701, 702, 704, 705,
                  707, 708, 710, 711, 713, 714, 716, 717, 719, 720, 722, 723,
                  725, 726, 728, 729, 731, 732, 734, 735, 737, 738, 740, 741,
                  743, 744, 746, 747, 749, 750, 752, 753, 755, 756

molecular fragmentation (1/2 indicates fragments):
111222222222222222222222222222222222222222222222222222222222222222222222
222222222222222222222222222222222222222222222222222222222222222222222222
222222222222222222222222222222222222222222222222222222222222222222222222
222222222222222222222222222222222222222222222222222222222222222222222222
222222222222222222222222222222222222222222222222222222222222222222222222
222222222222222222222222222222222222222222222222222222222222222222222222
222222222222222222222222222222222222222222222222222222222222222222222222
222222222222222222222222222222222222222222222222222222222222222222222222
222222222222222222222222222222222222222222222222222222222222222222222222
222222222222222222222222222222222222222222222222222222222222222222222222
222222222222222222222222222222222222
# atoms in fragment 1/2:     3   753
 fragment masses (1/2) :       18.02     4521.84
CMA distance (Bohr)    :  15.574
constraining FC (au)   :  0.0500

           -------------------------------------------------
          |                 G F N 2 - x T B                 |
           -------------------------------------------------

        Reference                      10.1021/acs.jctc.8b01176
      * Hamiltonian:
        H0-scaling (s, p, d)           1.850000    2.230000    2.230000
        zeta-weighting                 0.500000
      * Dispersion:
        s8                             2.700000
        a1                             0.520000
        a2                             5.000000
        s9                             5.000000
      * Repulsion:
        kExp                           1.500000    1.000000
        rExp                           1.000000
      * Coulomb:
        alpha                          2.000000
        third order                    shell-resolved
        anisotropic                    true
        a3                             3.000000
        a5                             4.000000
        cn-shift                       1.200000
        cn-exp                         4.000000
        max-rad                        5.000000


          ...................................................
          :                      SETUP                      :
          :.................................................:
          :  # basis functions                1512          :
          :  # atomic orbitals                1512          :
          :  # shells                         1008          :
          :  # electrons                      2016          :
          :  max. iterations                   250          :
          :  Hamiltonian                  GFN2-xTB          :
          :  restarted?                      false          :
          :  GBSA solvation                  false          :
          :  PC potential                    false          :
          :  electronic temp.          300.0000000     K    :
          :  accuracy                    1.0000000          :
          :  -> integral cutoff          0.2500000E+02      :
          :  -> integral neglect         0.1000000E-07      :
          :  -> SCF convergence          0.1000000E-05 Eh   :
          :  -> wf. convergence          0.1000000E-03 e    :
          :  Broyden damping             0.4000000          :
          ...................................................

 iter      E             dE          RMSdq      gap      omega  full diag
   1  -1291.0228918 -0.129102E+04  0.406E+00    8.45       0.0  T
   2  -1291.0922958 -0.694039E-01  0.241E+00    8.41       1.0  T
   3  -1291.1229647 -0.306689E-01  0.207E-01    7.61       1.0  T
   4  -1291.1278709 -0.490624E-02  0.448E-02    7.84       1.0  T
   5  -1291.1279394 -0.684484E-04  0.304E-02    7.81       1.0  T
   6  -1291.1279770 -0.375664E-04  0.394E-03    7.83       1.0  T
   7  -1291.1279789 -0.197446E-05  0.782E-04    7.83       4.6  T
   8  -1291.1279790 -0.360399E-07  0.403E-04    7.82       9.0  T
   9  -1291.1279790 -0.158436E-07  0.639E-05    7.82      57.0  T

   *** convergence criteria satisfied after 9 iterations ***

         #    Occupation            Energy/Eh            Energy/eV
      -------------------------------------------------------------
         1        2.0000           -0.6955501             -18.9269
       ...           ...                  ...                  ...
      1002        2.0000           -0.4076502             -11.0927
      1003        2.0000           -0.4068425             -11.0707
      1004        2.0000           -0.4066275             -11.0649
      1005        2.0000           -0.4038145             -10.9884
      1006        2.0000           -0.4025671             -10.9544
      1007        2.0000           -0.3984416             -10.8421
      1008        2.0000           -0.3929290             -10.6921 (HOMO)
      1009                         -0.1053680              -2.8672 (LUMO)
      1010                         -0.0935677              -2.5461
      1011                         -0.0824695              -2.2441
      1012                         -0.0793445              -2.1591
      1013                         -0.0724495              -1.9715
       ...                                ...                  ...
      1512                          0.4213682              11.4660
      -------------------------------------------------------------
                  HL-Gap            0.2875611 Eh            7.8249 eV
             Fermi-level           -0.2491485 Eh           -6.7797 eV
 
 localization/xTB-IFF output generation
 averaging CT terms over            3  occ. levels
 averaging CT terms over            1  virt. levels
 dipole moment from electron density (au)
     X       Y       Z   
  -1.6042  -1.1246   4.8654  total (Debye):   13.332
cpu  time for init local    0.77 s
wall time for init local    0.39 s
 doing rotations ...
 initialization of trafo matrix to unity

 converged in     16 iterations, threshold :   0.99998006D-06
 doing transformations ...
 lmo centers(Z=2) and atoms on file <lmocent.coord>
 LMO Fii/eV  ncent    charge center   contributions...
    1 LP   *******   0.00  22.62256   2.23095  -8.63517  622O : 27.88  676O : 24.31  181O : 20.06  145O : 17.97   22O : 16.99  421O : 16.57  334O : 15.88  712O : 15.62  100O : 15.37  406O : 15.21  166O : 15.08  673O : 15.03
  547O : 15.00  703O : 14.55   40O : 14.39  505O : 14.28  301O : 13.94  217O : 13.56  436O : 13.53   37O : 13.01  247O : 12.84   64O : 12.84  694O : 12.64  271O : 12.57
  574O : 12.51  253O : 12.45  718O : 12.39  565O : 12.37  754O : 12.18  715O : 12.03  568O : 11.73   34O : 11.67  364O : 11.31  202O : 11.31  370O : 10.98  700O : 10.81
  385O : 10.64  226O : 10.14  394O :  9.95  211O :  9.69  304O :  9.61  682O :  9.52  724O :  9.51  391O :  9.40  148O :  9.35  532O :  9.11  283O :  9.01   10O :  8.74
  739O :  8.63  652O :  8.59  310O :  8.54  559O :  8.46  103O :  8.37  199O :  8.31  430O :  8.29  349O :  8.21  628O :  8.09    7O :  8.08  133O :  8.02  250O :  7.93
  562O :  7.84  121O :  7.70  379O :  7.70  607O :  7.66  487O :  7.63  595O :  7.59  448O :  7.56    1O :  7.53   25O :  7.22  619O :  7.20  610O :  7.18  670O :  7.14
  175O :  7.12  709O :  7.12  376O :  7.08  154O :  7.05  481O :  7.04  208O :  6.94  268O :  6.85  355O :  6.84  118O :  6.78  538O :  6.73  313O :  6.43  340O :  6.40
  730O :  6.35   82O :  6.33  490O :  6.31  667O :  6.04  223O :  5.94  277O :  5.90  748O :  5.90  472O :  5.80  592O :  5.79  556O :  5.78  403O :  5.77  295O :  5.74
  544O :  5.66  520O :  5.63  508O :  5.59  649O :  5.57  136O :  5.44  577O :  5.16   58O :  5.15  187O :  5.10  571O :  5.09   85O :  5.08  331O :  5.07   97O :  5.07
  613O :  5.07  514O :  4.98  388O :  4.98  142O :  4.98   19O :  4.91  157O :  4.86  274O :  4.85  322O :  4.84  124O :  4.76  418O :  4.65  442O :  4.58  190O :  4.57
  637O :  4.56  412O :  4.55  409O :  4.53  325O :  4.49  475O :  4.40  259O :  4.39  529O :  4.36  598O :  4.36   49O :  4.29  655O :  4.24   79O :  4.23  373O :  4.22
  727O :  4.17  469O :  4.12   76O :  4.10  604O :  4.05   70O :  4.04  457O :  4.03  658O :  4.00  454O :  3.93  745O :  3.91  400O :  3.88  232O :  3.83   43O :  3.80
  580O :  3.79  238O :  3.70  424O :  3.68  196O :  3.67  286O :  3.64  589O :  3.58  445O :  3.55  298O :  3.49  319O :  3.49  415O :  3.44   46O :  3.33  172O :  3.32
  433O :  3.29  178O :  3.28  367O :  3.27  697O :  3.26  499O :  3.19  586O :  3.19  265O :  3.18  316O :  3.16  262O :  3.15  427O :  3.14  721O :  3.09  256O :  3.03
  163O :  3.01  661O :  3.01  625O :  3.00  493O :  3.00  184O :  2.96  193O :  2.89  496O :  2.88  439O :  2.88   28O :  2.82  205O :  2.82  106O :  2.78  733O :  2.76
   94O :  2.69  463O :  2.68  502O :  2.66   13O :  2.63  130O :  2.63  169O :  2.61  109O :  2.58  583O :  2.54  634O :  2.45  151O :  2.43   91O :  2.40  674H :  2.39
  517O :  2.37  526O :  2.35   88O :  2.33   67O :  2.28  229O :  2.26  751O :  2.24  646O :  2.24  742O :  2.22  115O :  2.22  333H :  2.20  460O :  2.20  478O :  2.17
  328O :  2.15  541O :  2.13  601O :  2.11  535O :  2.06  640O :  2.04  214O :  1.99  382O :  1.94   52O :  1.93  600H :  1.93  572H :  1.88  280O :  1.87  241O :  1.87
   31O :  1.86  139O :  1.84  112O :  1.78  244O :  1.77   16O :  1.76  220O :  1.76  685O :  1.74  570H :  1.69  523O :  1.69  543H :  1.68  235O :  1.67  361O :  1.65
  701H :  1.65  679O :  1.62  352O :  1.60  343O :  1.57  405H :  1.57  706O :  1.55  160O :  1.50  688O :  1.50  358O :  1.47  289O :  1.43  705H :  1.41  621H :  1.40
  631O :  1.39  511O :  1.33   11H :  1.33  643O :  1.31  134H :  1.27  664O :  1.25  186H :  1.21  564H :  1.21  357H :  1.17   20H :  1.14  616O :  1.14  346O :  1.13
  292O :  1.13  251H :  1.10    4O :  1.09  504H :  1.08  691O :  1.07  450H :  1.07   55O :  1.06  416H :  1.03  695H :  1.00  350H :  1.00  484O :  0.99  516H :  0.93
  659H :  0.92  731H :  0.88  307O :  0.88  303H :  0.88  296H :  0.86  713H :  0.85   61O :  0.85  397O :  0.84  414H :  0.83  176H :  0.81  225H :  0.78  509H :  0.78
  708H :  0.77   83H :  0.77  545H :  0.77  108H :  0.77   33H :  0.76  306H :  0.76  337O :  0.75  420H :  0.74  189H :  0.73   73O :  0.73  553O :  0.72  561H :  0.72
  261H :  0.72  351H :  0.70  638H :  0.69  125H :  0.68  105H :  0.68  645H :  0.67  302H :  0.66  653H :  0.66  167H :  0.66  483H :  0.66  276H :  0.66  575H :  0.65
  389H :  0.65  466O :  0.64  419H :  0.63  285H :  0.62  451O :  0.62  585H :  0.61   81H :  0.60  435H :  0.60  635H :  0.60  375H :  0.59  354H :  0.59   48H :  0.58
  563H :  0.58  470H :  0.58  540H :  0.57   24H :  0.56  369H :  0.55  131H :  0.54  560H :  0.53  668H :  0.53  327H :  0.52  198H :  0.52  150H :  0.51  258H :  0.50
  440H :  0.50  725H :  0.50  305H :  0.48  101H :  0.48  143H :  0.48  330H :  0.48  528H :  0.47  374H :  0.47  609H :  0.46    2H :  0.46  681H :  0.46  443H :  0.46
  736O :  0.45  702H :  0.45  219H :  0.44  377H :  0.44   71H :  0.44  137H :  0.44  209H :  0.43   26H :  0.43  240H :  0.43  522H :  0.43  390H :  0.43   51H :  0.42
  315H :  0.42  539H :  0.41  531H :  0.41  714H :  0.41  438H :  0.40  402H :  0.40    5H :  0.39  120H :  0.39  696H :  0.39  444H :  0.39  195H :  0.38  468H :  0.38
   15H :  0.38  158H :  0.38  550O :  0.38  593H :  0.36   95H :  0.36  549H :  0.36  102H :  0.36   42H :  0.35  611H :  0.35  182H :  0.35  692H :  0.35  747H :  0.35
  387H :  0.35  353H :  0.35  627H :  0.34  542H :  0.34  155H :  0.34  722H :  0.34  624H :  0.33  284H :  0.33  200H :  0.33  524H :  0.33  191H :  0.33  660H :  0.32
   35H :  0.32  521H :  0.31  474H :  0.31  465H :  0.31  288H :  0.31  743H :  0.31  519H :  0.30  192H :  0.30  132H :  0.30  272H :  0.30  686H :  0.30  282H :  0.30
  329H :  0.29   59H :  0.28  753H :  0.28   92H :  0.28  689H :  0.28   87H :  0.28  455H :  0.28  264H :  0.27  476H :  0.27  429H :  0.27  372H :  0.27  300H :  0.26
  332H :  0.26  297H :  0.26  480H :  0.26   84H :  0.26  156H :  0.26  266H :  0.26  127O :  0.25  473H :  0.25  486H :  0.25  204H :  0.25  149H :  0.25  494H :  0.25
  507H :  0.24  488H :  0.24  342H :  0.24  501H :  0.23  122H :  0.23  218H :  0.23  485H :  0.23  546H :  0.23  576H :  0.23  152H :  0.23  188H :  0.23  348H :  0.23
  477H :  0.22  423H :  0.22  170H :  0.22  278H :  0.22  732H :  0.22  138H :  0.22  579H :  0.21  203H :  0.21  590H :  0.21  234H :  0.21  197H :  0.21  618H :  0.20
  651H :  0.20    9H :  0.20   54H :  0.20  704H :  0.20  318H :  0.20  597H :  0.19  447H :  0.19  293H :  0.19  233H :  0.19   38H :  0.18  434H :  0.18   57H :  0.18
  683H :  0.18   44H :  0.18  168H :  0.18   12H :  0.17   90H :  0.17  314H :  0.17  245H :  0.17  140H :  0.17  401H :  0.17  608H :  0.17  383H :  0.17  636H :  0.17
  566H :  0.16  123H :  0.16  707H :  0.16  711H :  0.16  207H :  0.16  362H :  0.16  299H :  0.16  492H :  0.15  650H :  0.15  413H :  0.15  210H :  0.15  183H :  0.15
  275H :  0.15  456H :  0.15  518H :  0.15  141H :  0.15  180H :  0.15  623H :  0.15  741H :  0.15  654H :  0.14  153H :  0.14  740H :  0.14  606H :  0.14  648H :  0.14
  594H :  0.13   14H :  0.13  680H :  0.13   77H :  0.13  339H :  0.13  617H :  0.13  581H :  0.12   99H :  0.12  666H :  0.12  446H :  0.12   41H :  0.12  171H :  0.12
  311H :  0.12  471H :  0.12  428H :  0.11  161H :  0.11  582H :  0.11  117H :  0.11  573H :  0.11  510H :  0.11   17H :  0.11  729H :  0.11   53H :  0.10  699H :  0.10
   18H :  0.10  222H :  0.10  257H :  0.10  255H :  0.10  449H :  0.09   75H :  0.09   47H :  0.09  462H :  0.09  584H :  0.09  366H :  0.09  717H :  0.09  690H :  0.09
  386H :  0.09   56H :  0.09  116H :  0.08  287H :  0.08  335H :  0.08  441H :  0.08  404H :  0.08    3H :  0.08   39H :  0.08  737H :  0.08   74H :  0.08  548H :  0.08
  432H :  0.08  647H :  0.08  212H :  0.07  164H :  0.07  363H :  0.07  228H :  0.07  632H :  0.07
    2 LP   *******   0.00  -6.83353 -23.09204  31.16673  622O : 19.07  676O : 19.03  181O : 18.78  145O : 14.09   22O : 13.33  421O : 13.00  334O : 12.46  712O : 12.25  100O : 12.08  406O : 11.93  166O : 11.80  673O : 11.79
  547O : 11.77  703O : 11.41   40O : 11.29  505O : 11.19  301O : 10.87  217O : 10.64  436O : 10.61   37O : 10.21   64O : 10.08  247O : 10.07  694O :  9.94  574O :  9.82
  253O :  9.77  718O :  9.72  565O :  9.71  271O :  9.69  754O :  9.56  715O :  9.44  568O :  9.20   34O :  9.16  364O :  8.87  202O :  8.87  370O :  8.61  700O :  8.47
  385O :  8.35  226O :  7.96  394O :  7.84  211O :  7.60  304O :  7.54  682O :  7.47  724O :  7.44  391O :  7.38  148O :  7.33  532O :  7.14  283O :  7.07   10O :  6.85
  739O :  6.77  652O :  6.74  310O :  6.70  559O :  6.64  199O :  6.52  430O :  6.52  349O :  6.44  628O :  6.34    7O :  6.34  133O :  6.30  103O :  6.27  250O :  6.23
  562O :  6.15  379O :  6.04  121O :  6.04  607O :  6.01  487O :  5.98  448O :  5.93  595O :  5.93    1O :  5.91   25O :  5.65  619O :  5.65  610O :  5.63  670O :  5.60
  709O :  5.59  175O :  5.59  376O :  5.56  154O :  5.53  481O :  5.52  208O :  5.45  268O :  5.37  355O :  5.37  118O :  5.31  538O :  5.28  313O :  5.05  340O :  5.02
  730O :  4.99   82O :  4.95  490O :  4.95  667O :  4.74  223O :  4.66  277O :  4.64  748O :  4.63  472O :  4.55  592O :  4.54  556O :  4.53  403O :  4.53  295O :  4.50
  544O :  4.44  520O :  4.42  508O :  4.39  649O :  4.37  136O :  4.28  577O :  4.04   58O :  4.04  187O :  4.00  571O :  4.00   85O :  3.98   97O :  3.98  331O :  3.98
  613O :  3.98  514O :  3.91  388O :  3.91  142O :  3.91  274O :  3.87   19O :  3.85  157O :  3.81  322O :  3.80  124O :  3.74  418O :  3.65  190O :  3.58  637O :  3.58
  442O :  3.58  412O :  3.57  409O :  3.56  325O :  3.52  475O :  3.46  259O :  3.44  529O :  3.42  598O :  3.42   49O :  3.36  655O :  3.33   79O :  3.32  373O :  3.31
  727O :  3.27  469O :  3.24   76O :  3.22  604O :  3.17   70O :  3.17  457O :  3.16  658O :  3.13  454O :  3.09  745O :  3.07  400O :  3.04  232O :  3.00   43O :  2.98
  580O :  2.97  238O :  2.91  424O :  2.89  196O :  2.88  286O :  2.86  589O :  2.81  445O :  2.78  298O :  2.74  319O :  2.73  415O :  2.70   46O :  2.61  172O :  2.61
  433O :  2.58  178O :  2.57  367O :  2.57  697O :  2.56  262O :  2.52  499O :  2.50  586O :  2.50  265O :  2.49  316O :  2.48  721O :  2.48  427O :  2.46  256O :  2.38
  163O :  2.36  661O :  2.36  493O :  2.35  625O :  2.35  184O :  2.32  439O :  2.28  193O :  2.27   28O :  2.21  205O :  2.21  106O :  2.18  733O :  2.17   94O :  2.11
  463O :  2.10  496O :  2.09  502O :  2.09   13O :  2.07  130O :  2.06  169O :  2.04  109O :  2.03  583O :  1.99  634O :  1.93  151O :  1.90   91O :  1.88  674H :  1.88
  517O :  1.86  526O :  1.84   88O :  1.82   67O :  1.79  229O :  1.77  751O :  1.76  646O :  1.75  742O :  1.74  115O :  1.74  333H :  1.73  460O :  1.73  541O :  1.72
  478O :  1.70  328O :  1.69  601O :  1.65  535O :  1.61  640O :  1.60  214O :  1.56  382O :  1.52   52O :  1.52  600H :  1.51  572H :  1.48  280O :  1.47  241O :  1.47
   31O :  1.46  139O :  1.45  112O :  1.40  244O :  1.39   16O :  1.38  220O :  1.38  685O :  1.37  570H :  1.33  523O :  1.32  235O :  1.31  361O :  1.30  543H :  1.29
  701H :  1.29  679O :  1.27  352O :  1.26  343O :  1.23  405H :  1.23  706O :  1.22  688O :  1.18  160O :  1.17  358O :  1.15  289O :  1.12  705H :  1.11  621H :  1.10
  631O :  1.09  511O :  1.04   11H :  1.04  643O :  1.03  134H :  1.00  664O :  0.98  186H :  0.95  564H :  0.95  357H :  0.92   20H :  0.89  616O :  0.89  346O :  0.89
  292O :  0.88  251H :  0.87    4O :  0.86  504H :  0.84  691O :  0.84  450H :  0.84   55O :  0.83  416H :  0.81  695H :  0.79  350H :  0.78  484O :  0.78  516H :  0.73
  659H :  0.72  731H :  0.69  307O :  0.69  296H :  0.67  303H :  0.67  713H :  0.67   61O :  0.67  397O :  0.66  414H :  0.65  176H :  0.63  225H :  0.62  509H :  0.61
  708H :  0.61   83H :  0.61  545H :  0.60  108H :  0.60   33H :  0.60  306H :  0.60  337O :  0.59  420H :  0.58  189H :  0.57   73O :  0.57  553O :  0.57  561H :  0.57
  261H :  0.57  351H :  0.55  638H :  0.54  125H :  0.54  276H :  0.53  645H :  0.53  105H :  0.52  302H :  0.52  653H :  0.52  483H :  0.52  167H :  0.51  575H :  0.51
  389H :  0.51  466O :  0.50  419H :  0.50  285H :  0.49  451O :  0.49  585H :  0.48   81H :  0.47  435H :  0.47  635H :  0.47  375H :  0.46  354H :  0.46   48H :  0.46
  563H :  0.46  470H :  0.45  540H :  0.45   24H :  0.44  369H :  0.43  131H :  0.43  560H :  0.42  668H :  0.42  327H :  0.41  198H :  0.40  150H :  0.40  440H :  0.40
  258H :  0.40  725H :  0.39  305H :  0.38  143H :  0.38  330H :  0.38  528H :  0.37  101H :  0.37  374H :  0.37  609H :  0.36    2H :  0.36  681H :  0.36  443H :  0.36
  736O :  0.36  702H :  0.35  219H :  0.35  377H :  0.35   71H :  0.34  137H :  0.34  209H :  0.34   26H :  0.34  240H :  0.34  522H :  0.34  390H :  0.33   51H :  0.33
  315H :  0.33  539H :  0.33  531H :  0.32  714H :  0.32  438H :  0.32  402H :  0.32  624H :  0.31    5H :  0.31  696H :  0.31  120H :  0.31  444H :  0.30  468H :  0.30
  195H :  0.30   15H :  0.30  158H :  0.30  550O :  0.29  593H :  0.29   95H :  0.28  549H :  0.28  102H :  0.28   42H :  0.28  611H :  0.28  692H :  0.28  747H :  0.27
  722H :  0.27  387H :  0.27  627H :  0.27  155H :  0.27  353H :  0.27  542H :  0.27  284H :  0.26  200H :  0.26  524H :  0.26  191H :  0.26  660H :  0.25   35H :  0.25
  521H :  0.25  474H :  0.24  465H :  0.24  288H :  0.24  743H :  0.24  519H :  0.24  192H :  0.23  132H :  0.23  686H :  0.23  282H :  0.23  264H :  0.23  182H :  0.23
  272H :  0.23  329H :  0.23   59H :  0.22  753H :  0.22   92H :  0.22  689H :  0.22   87H :  0.22  455H :  0.22  476H :  0.21  372H :  0.21  429H :  0.21  300H :  0.21
  332H :  0.21  297H :  0.21  480H :  0.20   84H :  0.20  156H :  0.20  266H :  0.20  127O :  0.20  473H :  0.20  486H :  0.19  204H :  0.19  149H :  0.19  494H :  0.19
  507H :  0.19  488H :  0.19  342H :  0.19  501H :  0.18  122H :  0.18  218H :  0.18  485H :  0.18  546H :  0.18  576H :  0.18  152H :  0.18  188H :  0.18  348H :  0.18
  477H :  0.18  423H :  0.18  170H :  0.17  278H :  0.17  732H :  0.17  138H :  0.17  590H :  0.17  579H :  0.17  203H :  0.17  234H :  0.16  197H :  0.16  618H :  0.16
  651H :  0.16    9H :  0.16   54H :  0.15  704H :  0.15  318H :  0.15  623H :  0.15  597H :  0.15  447H :  0.15  293H :  0.15  233H :  0.15   38H :  0.14  434H :  0.14
   57H :  0.14  683H :  0.14   44H :  0.14  168H :  0.14   12H :  0.14   90H :  0.13  314H :  0.13  245H :  0.13  140H :  0.13  401H :  0.13  608H :  0.13  383H :  0.13
  636H :  0.13  123H :  0.13  566H :  0.13  707H :  0.13  711H :  0.12  207H :  0.12  362H :  0.12  299H :  0.12  492H :  0.12  650H :  0.12  413H :  0.12  210H :  0.12
  456H :  0.12  518H :  0.12  141H :  0.12  180H :  0.12  275H :  0.11  741H :  0.11  654H :  0.11  153H :  0.11  740H :  0.11  606H :  0.11  648H :  0.11  594H :  0.10
  446H :  0.10   14H :  0.10  680H :  0.10   77H :  0.10  339H :  0.10  617H :  0.10  581H :  0.10   99H :  0.10  666H :  0.10   41H :  0.09  171H :  0.09  311H :  0.09
  471H :  0.09  161H :  0.09  428H :  0.09  582H :  0.09  117H :  0.09  573H :  0.09  510H :  0.09   17H :  0.08  729H :  0.08   53H :  0.08  699H :  0.08   18H :  0.08
  222H :  0.08  183H :  0.08  257H :  0.08  255H :  0.08  449H :  0.07   75H :  0.07   47H :  0.07  462H :  0.07
    3 LP   *******   0.00  16.20696   3.52866  -5.34775  676O : 19.94  622O : 17.56  181O : 14.49  145O : 12.97   22O : 12.27  421O : 11.96  334O : 11.47  712O : 11.27  100O : 11.10  406O : 10.98  166O : 10.92  673O : 10.85
  547O : 10.83  703O : 10.50   40O : 10.39  505O : 10.31  301O :  9.98  217O :  9.79  436O :  9.76   37O :  9.39  247O :  9.27   64O :  9.27  271O :  9.18  694O :  9.13
  574O :  9.03  253O :  8.99  718O :  8.94  565O :  8.93  754O :  8.79  715O :  8.69  568O :  8.46   34O :  8.43  364O :  8.16  202O :  8.16  370O :  7.92  700O :  7.80
  385O :  7.68  226O :  7.32  394O :  7.19  211O :  6.99  724O :  6.99  304O :  6.94  682O :  6.87  391O :  6.81  148O :  6.75  532O :  6.57  283O :  6.51   10O :  6.31
  739O :  6.23  652O :  6.20  310O :  6.17  559O :  6.11  103O :  6.04  199O :  6.01  430O :  5.99  349O :  5.93  133O :  5.85  628O :  5.84    7O :  5.84  250O :  5.73
  562O :  5.66  121O :  5.56  379O :  5.56  607O :  5.53  487O :  5.51  595O :  5.48  448O :  5.46    1O :  5.44   25O :  5.21  619O :  5.19  610O :  5.18  670O :  5.15
  175O :  5.14  709O :  5.14  376O :  5.11  154O :  5.09  481O :  5.08  208O :  5.01  268O :  4.94  355O :  4.94  118O :  4.89  538O :  4.85  313O :  4.65  340O :  4.62
  730O :  4.59   82O :  4.57  490O :  4.55  667O :  4.36  223O :  4.29  748O :  4.26  277O :  4.26  472O :  4.18  592O :  4.18  556O :  4.17  403O :  4.17  295O :  4.13
  544O :  4.09  520O :  4.06  508O :  4.04  649O :  4.02  136O :  3.92  577O :  3.72   58O :  3.72  187O :  3.68  571O :  3.68   85O :  3.66  331O :  3.66   97O :  3.66
  613O :  3.66  514O :  3.60  388O :  3.60  142O :  3.59   19O :  3.55  274O :  3.52  157O :  3.51  322O :  3.49  124O :  3.44  418O :  3.36  442O :  3.30  190O :  3.30
  637O :  3.29  412O :  3.28  409O :  3.27  325O :  3.24  475O :  3.18  259O :  3.17  529O :  3.15  598O :  3.15   49O :  3.09  655O :  3.09   79O :  3.05  373O :  3.05
  727O :  3.01  469O :  2.98   76O :  2.96  604O :  2.92   70O :  2.91  457O :  2.91  658O :  2.88  454O :  2.84  745O :  2.82  400O :  2.80  232O :  2.76   43O :  2.74
  580O :  2.74  238O :  2.67  424O :  2.66  196O :  2.65  286O :  2.63  589O :  2.58  445O :  2.57  298O :  2.52  319O :  2.52  415O :  2.49   46O :  2.40  172O :  2.40
  433O :  2.37  178O :  2.37  367O :  2.36  697O :  2.36  721O :  2.31  262O :  2.31  499O :  2.30  586O :  2.30  265O :  2.29  316O :  2.28  427O :  2.27  256O :  2.19
  163O :  2.18  493O :  2.17  661O :  2.17  625O :  2.17  184O :  2.14  193O :  2.09  496O :  2.08  439O :  2.08   28O :  2.04  205O :  2.04  106O :  2.01  733O :  1.99
   94O :  1.94  463O :  1.94  502O :  1.92   13O :  1.90  130O :  1.90  169O :  1.88  109O :  1.86  583O :  1.83  634O :  1.77  151O :  1.75   91O :  1.73  674H :  1.73
  517O :  1.71  541O :  1.71  526O :  1.70   88O :  1.68   67O :  1.64  229O :  1.63  751O :  1.62  646O :  1.61  742O :  1.60  115O :  1.60  333H :  1.59  460O :  1.59
  478O :  1.56  328O :  1.55  543H :  1.53  601O :  1.52  535O :  1.48  640O :  1.47  214O :  1.44  382O :  1.40   52O :  1.39  600H :  1.39  572H :  1.36  280O :  1.35
  241O :  1.35   31O :  1.34  139O :  1.33  112O :  1.29  244O :  1.28   16O :  1.27  220O :  1.27  685O :  1.26  570H :  1.22  523O :  1.22  235O :  1.21  361O :  1.19
  701H :  1.19  679O :  1.17  352O :  1.15  343O :  1.13  405H :  1.13  706O :  1.12  688O :  1.11  160O :  1.08  358O :  1.06  289O :  1.03  705H :  1.02  621H :  1.01
  631O :  1.00  511O :  0.96   11H :  0.96  643O :  0.94  134H :  0.93  664O :  0.90  186H :  0.88  564H :  0.87  357H :  0.85   20H :  0.82  616O :  0.82  346O :  0.82
  292O :  0.81  251H :  0.80    4O :  0.79  504H :  0.78  691O :  0.77  450H :  0.77   55O :  0.77  416H :  0.74  695H :  0.72  350H :  0.72  484O :  0.72  516H :  0.67
  659H :  0.66  731H :  0.64  307O :  0.63  296H :  0.62  713H :  0.61  303H :  0.61   61O :  0.61  397O :  0.61  414H :  0.60  176H :  0.58  225H :  0.57  509H :  0.56
  708H :  0.56   83H :  0.56  545H :  0.55  108H :  0.55   33H :  0.55  306H :  0.55  337O :  0.54  420H :  0.54  189H :  0.53   73O :  0.52  553O :  0.52  561H :  0.52
  261H :  0.52  351H :  0.51  638H :  0.50  125H :  0.49  105H :  0.49  167H :  0.49  645H :  0.48  653H :  0.47  483H :  0.47  276H :  0.47  575H :  0.47  389H :  0.47
  302H :  0.47  466O :  0.46  419H :  0.46  285H :  0.45  451O :  0.45  585H :  0.44   81H :  0.43  435H :  0.43  635H :  0.43  375H :  0.43  354H :  0.42   48H :  0.42
  563H :  0.42  470H :  0.42  540H :  0.41   24H :  0.40  369H :  0.40  131H :  0.39  560H :  0.39  668H :  0.38  327H :  0.37  198H :  0.37  150H :  0.37  258H :  0.36
  440H :  0.36  725H :  0.36  305H :  0.35  101H :  0.35  143H :  0.35  330H :  0.35  528H :  0.34  374H :  0.34  609H :  0.34    2H :  0.33  681H :  0.33  443H :  0.33
  736O :  0.33  702H :  0.32  219H :  0.32  377H :  0.32   71H :  0.32  209H :  0.31   26H :  0.31  240H :  0.31  522H :  0.31  390H :  0.31   51H :  0.30  315H :  0.30
  539H :  0.30  531H :  0.30  714H :  0.30  624H :  0.29  438H :  0.29  402H :  0.29    5H :  0.28  120H :  0.28  696H :  0.28  137H :  0.28  444H :  0.28  195H :  0.28
  468H :  0.28   15H :  0.28  158H :  0.27  550O :  0.27  593H :  0.26   95H :  0.26  549H :  0.26  102H :  0.26   42H :  0.26  611H :  0.25  182H :  0.25  692H :  0.25
  747H :  0.25  722H :  0.25  387H :  0.25  353H :  0.25  627H :  0.25  155H :  0.25  284H :  0.24  542H :  0.24  200H :  0.24  524H :  0.24  191H :  0.24  660H :  0.23
   35H :  0.23  521H :  0.23  474H :  0.23  465H :  0.23  288H :  0.22  743H :  0.22  519H :  0.22  192H :  0.21  132H :  0.21  686H :  0.21  282H :  0.21  272H :  0.21
  264H :  0.21  329H :  0.21   59H :  0.21  753H :  0.20   92H :  0.20   87H :  0.20  689H :  0.20  455H :  0.20  476H :  0.20  429H :  0.19  372H :  0.19  300H :  0.19
  332H :  0.19  297H :  0.19  480H :  0.19   84H :  0.19  156H :  0.19  266H :  0.18  127O :  0.18  473H :  0.18  486H :  0.18  204H :  0.18  149H :  0.18  494H :  0.18
  507H :  0.17  488H :  0.17  342H :  0.17  501H :  0.17  122H :  0.17  218H :  0.17  485H :  0.17  546H :  0.17  576H :  0.16  152H :  0.16  188H :  0.16  348H :  0.16
  477H :  0.16  423H :  0.16  170H :  0.16  138H :  0.16  278H :  0.16  732H :  0.16  579H :  0.15  203H :  0.15  590H :  0.15  234H :  0.15  197H :  0.15  618H :  0.15
  623H :  0.15  651H :  0.14    9H :  0.14   54H :  0.14  704H :  0.14  318H :  0.14  597H :  0.14  447H :  0.14  293H :  0.14  233H :  0.13   38H :  0.13  434H :  0.13
   57H :  0.13  683H :  0.13   44H :  0.13   12H :  0.13   90H :  0.12  314H :  0.12  245H :  0.12  140H :  0.12  401H :  0.12  608H :  0.12  383H :  0.12  636H :  0.12
  566H :  0.12  123H :  0.12  707H :  0.12  711H :  0.11  207H :  0.11  362H :  0.11  299H :  0.11  492H :  0.11  650H :  0.11  413H :  0.11  168H :  0.11  210H :  0.11
  183H :  0.11  456H :  0.11  275H :  0.11  518H :  0.11  141H :  0.11  180H :  0.11  741H :  0.11  654H :  0.10  153H :  0.10  740H :  0.10  606H :  0.10  648H :  0.10
  594H :  0.09   14H :  0.09  680H :  0.09   77H :  0.09  617H :  0.09  339H :  0.09  581H :  0.09   99H :  0.09  666H :  0.09  446H :  0.09   41H :  0.09  171H :  0.09
  311H :  0.09  471H :  0.08  428H :  0.08  161H :  0.08  582H :  0.08  117H :  0.08  573H :  0.08  510H :  0.08   17H :  0.08  729H :  0.08   53H :  0.07  699H :  0.07
   18H :  0.07  222H :  0.07  257H :  0.07
    4 LP   *******   0.00 -56.39930 -24.47010  25.08321  622O : 15.14  676O : 15.10  181O : 12.49   22O : 12.44  145O : 11.19  421O : 10.32  334O :  9.91  712O :  9.73  100O :  9.58  406O :  9.40  166O :  9.39  673O :  9.36
  547O :  9.35  703O :  9.06   40O :  8.96  505O :  8.90  301O :  8.63  217O :  8.45  436O :  8.42   37O :  8.10   64O :  8.00  247O :  7.99  694O :  7.87  271O :  7.83
  574O :  7.79  253O :  7.75  718O :  7.71  565O :  7.71  754O :  7.58  715O :  7.50  568O :  7.30   34O :  7.27  202O :  7.17  364O :  7.04  370O :  6.84  700O :  6.73
  385O :  6.63  226O :  6.22  394O :  6.20  211O :  6.07  304O :  5.99  682O :  5.93  724O :  5.91  391O :  5.86  148O :  5.82  532O :  5.67  283O :  5.61   10O :  5.45
  739O :  5.38  652O :  5.35  310O :  5.32  559O :  5.27  103O :  5.21  430O :  5.18  199O :  5.18  349O :  5.11  628O :  5.05    7O :  5.03  133O :  4.99  250O :  4.94
  562O :  4.88  121O :  4.80  379O :  4.79  607O :  4.77  595O :  4.73  448O :  4.71  487O :  4.71    1O :  4.70   25O :  4.50  610O :  4.49  619O :  4.48  670O :  4.45
  709O :  4.43  175O :  4.43  376O :  4.41  154O :  4.39  481O :  4.38  208O :  4.32  268O :  4.27  355O :  4.26  118O :  4.22  538O :  4.19  313O :  4.01  340O :  3.98
  730O :  3.96   82O :  3.94  490O :  3.93  667O :  3.76  223O :  3.70  748O :  3.68  277O :  3.68  472O :  3.61  592O :  3.60  556O :  3.60  403O :  3.60  295O :  3.57
  544O :  3.53  520O :  3.51  508O :  3.48  649O :  3.47  136O :  3.39  577O :  3.21   58O :  3.21  187O :  3.18  571O :  3.17  331O :  3.16   97O :  3.16   85O :  3.16
  613O :  3.16  514O :  3.10  388O :  3.10  142O :  3.10   19O :  3.06  157O :  3.02  274O :  3.02  322O :  3.01  124O :  2.97  418O :  2.90  442O :  2.85  190O :  2.85
  637O :  2.84  412O :  2.83  409O :  2.82  325O :  2.79  475O :  2.74  259O :  2.73  529O :  2.72  598O :  2.71   49O :  2.67  655O :  2.64   79O :  2.63  373O :  2.63
  727O :  2.60  469O :  2.57   76O :  2.55  604O :  2.52   70O :  2.51  457O :  2.50  658O :  2.49  454O :  2.46  745O :  2.44  400O :  2.41  232O :  2.39   43O :  2.36
  580O :  2.36  238O :  2.31  424O :  2.29  196O :  2.29  286O :  2.26  589O :  2.23  445O :  2.21  298O :  2.17  319O :  2.17  415O :  2.15   46O :  2.07  172O :  2.07
  433O :  2.05  178O :  2.04  367O :  2.04  697O :  2.04  262O :  2.00  499O :  1.99  586O :  1.98  265O :  1.98  316O :  1.97  721O :  1.96  427O :  1.96  256O :  1.89
  163O :  1.88  661O :  1.87  625O :  1.87  493O :  1.87  184O :  1.85  193O :  1.80  496O :  1.80  439O :  1.79   28O :  1.76  205O :  1.76  106O :  1.73  733O :  1.72
   94O :  1.67  463O :  1.67  502O :  1.66   13O :  1.64  130O :  1.64  169O :  1.62  109O :  1.61  583O :  1.58  634O :  1.53  151O :  1.51   91O :  1.49  674H :  1.49
   67O :  1.48  517O :  1.48  526O :  1.46   88O :  1.45  229O :  1.41  751O :  1.40  646O :  1.39  742O :  1.38  115O :  1.38  333H :  1.37  460O :  1.37  541O :  1.37
  478O :  1.35  328O :  1.34  601O :  1.31  535O :  1.28  640O :  1.27  382O :  1.21   52O :  1.20  600H :  1.20  572H :  1.17  214O :  1.17  280O :  1.17  241O :  1.16
   31O :  1.16  139O :  1.15  244O :  1.10  220O :  1.10   16O :  1.10  112O :  1.10  685O :  1.08  235O :  1.08  570H :  1.05  523O :  1.05  361O :  1.03  543H :  1.03
  701H :  1.03  679O :  1.01  352O :  1.00  343O :  0.98  405H :  0.98  706O :  0.96  688O :  0.93  160O :  0.93  358O :  0.92  289O :  0.89  705H :  0.88  621H :  0.88
  631O :  0.86  511O :  0.83   11H :  0.83  643O :  0.82  134H :  0.79  664O :  0.78  186H :  0.76  564H :  0.75  357H :  0.73   20H :  0.71  616O :  0.71  346O :  0.70
  292O :  0.70  251H :  0.69    4O :  0.68  691O :  0.67  504H :  0.67  450H :  0.66   55O :  0.66  416H :  0.64  695H :  0.62  350H :  0.62  484O :  0.62  516H :  0.58
  659H :  0.57  731H :  0.55  307O :  0.55  296H :  0.53  303H :  0.53  713H :  0.53   61O :  0.53  397O :  0.53  414H :  0.52  176H :  0.50  225H :  0.49  509H :  0.48
  708H :  0.48   83H :  0.48  545H :  0.48  108H :  0.48   33H :  0.48  306H :  0.47  337O :  0.47  420H :  0.46   73O :  0.46  189H :  0.46  553O :  0.45  561H :  0.45
  261H :  0.45  351H :  0.44  638H :  0.43  125H :  0.43  105H :  0.43  645H :  0.42  302H :  0.41  653H :  0.41  167H :  0.41  483H :  0.41  276H :  0.41  575H :  0.41
  389H :  0.41  466O :  0.40  419H :  0.39  285H :  0.39  451O :  0.39  585H :  0.38   81H :  0.38  435H :  0.37  635H :  0.37  375H :  0.37  354H :  0.37   48H :  0.36
  563H :  0.36  470H :  0.36  540H :  0.36  369H :  0.34  131H :  0.34  560H :  0.33  668H :  0.33  327H :  0.32  198H :  0.32  150H :  0.32  258H :  0.31  440H :  0.31
  725H :  0.31  305H :  0.30  101H :  0.30  143H :  0.30  330H :  0.30  528H :  0.29  374H :  0.29   24H :  0.29  609H :  0.29    2H :  0.28  681H :  0.28  443H :  0.28
  736O :  0.28  702H :  0.28  219H :  0.28  377H :  0.27   71H :  0.27  137H :  0.27  209H :  0.27   26H :  0.27  240H :  0.27  522H :  0.27  390H :  0.27   51H :  0.26
  204H :  0.26  315H :  0.26  539H :  0.26  531H :  0.26  714H :  0.26  438H :  0.25  402H :  0.25  624H :  0.25    5H :  0.24  120H :  0.24  696H :  0.24  444H :  0.24
  195H :  0.24  468H :  0.24   15H :  0.24  158H :  0.24  550O :  0.23  593H :  0.23   95H :  0.22  549H :  0.22  102H :  0.22   42H :  0.22  611H :  0.22  692H :  0.22
  182H :  0.22  747H :  0.22  722H :  0.22  387H :  0.22  353H :  0.22  627H :  0.21  155H :  0.21  542H :  0.21  284H :  0.21  200H :  0.21  524H :  0.21  191H :  0.20
  660H :  0.20   35H :  0.20  521H :  0.19  474H :  0.19  465H :  0.19  288H :  0.19  743H :  0.19  519H :  0.19  192H :  0.19  132H :  0.19  686H :  0.19  272H :  0.19
  282H :  0.18  264H :  0.18  329H :  0.18  753H :  0.18   59H :  0.18   92H :  0.18  689H :  0.18   87H :  0.18  455H :  0.17  476H :  0.17  429H :  0.17  372H :  0.17
  300H :  0.16  332H :  0.16  297H :  0.16  480H :  0.16   84H :  0.16  156H :  0.16  266H :  0.16  127O :  0.16  473H :  0.16  486H :  0.16  149H :  0.15  494H :  0.15
  488H :  0.15  507H :  0.15  342H :  0.15  501H :  0.15  122H :  0.15  218H :  0.14  485H :  0.14  546H :  0.14  576H :  0.14  152H :  0.14  188H :  0.14  348H :  0.14
  477H :  0.14  423H :  0.14  170H :  0.14  278H :  0.14  732H :  0.14  138H :  0.14  203H :  0.13  579H :  0.13  590H :  0.13  234H :  0.13  197H :  0.13  618H :  0.13
  651H :  0.12    9H :  0.12   54H :  0.12  704H :  0.12  318H :  0.12  623H :  0.12  597H :  0.12  447H :  0.12  293H :  0.12  233H :  0.12  434H :  0.11   38H :  0.11
   57H :  0.11  683H :  0.11   44H :  0.11  168H :  0.11   12H :  0.11   90H :  0.11  314H :  0.10  245H :  0.10  140H :  0.10  401H :  0.10  608H :  0.10  636H :  0.10
  383H :  0.10  566H :  0.10  123H :  0.10  707H :  0.10  711H :  0.10  207H :  0.10  362H :  0.10  299H :  0.10  492H :  0.10  650H :  0.10  413H :  0.10  210H :  0.09
  183H :  0.09  275H :  0.09  456H :  0.09  518H :  0.09  141H :  0.09  180H :  0.09  741H :  0.09  654H :  0.09  153H :  0.09  740H :  0.09  606H :  0.09  648H :  0.09
  594H :  0.08   14H :  0.08  680H :  0.08   77H :  0.08  617H :  0.08  339H :  0.08  581H :  0.08   99H :  0.08  446H :  0.08   41H :  0.08  666H :  0.08  171H :  0.07
  311H :  0.07  471H :  0.07  428H :  0.07  161H :  0.07  215H :  0.07  582H :  0.07
    5 LP   *******   0.00 -22.15665  39.51941   3.94521  622O : 15.09  676O : 15.06  181O : 12.46  421O : 11.71  145O : 11.16   22O : 10.55  334O :  9.87  712O :  9.70  100O :  9.55  406O :  9.44  166O :  9.37  673O :  9.33
  547O :  9.32  703O :  9.03   40O :  8.93  505O :  8.87  301O :  8.61  217O :  8.51  436O :  8.40   37O :  8.08   64O :  7.98  247O :  7.97  694O :  7.85  271O :  7.81
  574O :  7.77  718O :  7.69  565O :  7.68  253O :  7.65  754O :  7.57  715O :  7.47  568O :  7.28   34O :  7.25  202O :  7.02  364O :  7.02  370O :  6.82  700O :  6.71
  385O :  6.61  226O :  6.30  394O :  6.18  211O :  6.02  304O :  5.97  682O :  5.91  724O :  5.90  391O :  5.84  148O :  5.81  532O :  5.66  283O :  5.60   10O :  5.43
  739O :  5.36  652O :  5.33  310O :  5.31  559O :  5.25  103O :  5.20  199O :  5.15  430O :  5.15  349O :  5.10  628O :  5.02    7O :  5.02  133O :  4.98  250O :  4.95
  562O :  4.87  121O :  4.78  379O :  4.78  607O :  4.75  487O :  4.74  595O :  4.72  448O :  4.70    1O :  4.68   25O :  4.49  619O :  4.47  610O :  4.46  670O :  4.43
  175O :  4.42  709O :  4.42  376O :  4.39  154O :  4.38  481O :  4.37  208O :  4.31  268O :  4.25  355O :  4.25  118O :  4.20  538O :  4.18  313O :  4.00  340O :  3.97
  730O :  3.94   82O :  3.93  490O :  3.92  667O :  3.75  223O :  3.69  748O :  3.67  277O :  3.67  472O :  3.60  592O :  3.60  556O :  3.59  403O :  3.59  295O :  3.56
  544O :  3.52  520O :  3.50  508O :  3.47  649O :  3.46  136O :  3.39  577O :  3.20   58O :  3.20  187O :  3.17  571O :  3.16   85O :  3.15  331O :  3.15   97O :  3.15
  613O :  3.15  388O :  3.10  514O :  3.09  142O :  3.09   19O :  3.05  157O :  3.05  274O :  3.01  322O :  3.01  124O :  2.96  418O :  2.89  442O :  2.84  190O :  2.84
  637O :  2.84  412O :  2.82  409O :  2.81  325O :  2.79  475O :  2.73  259O :  2.73  529O :  2.71  598O :  2.71   49O :  2.66  655O :  2.63   79O :  2.63  373O :  2.62
  727O :  2.59  469O :  2.56   76O :  2.55  604O :  2.51   70O :  2.51  457O :  2.50  658O :  2.47  454O :  2.44  745O :  2.43  400O :  2.41  232O :  2.38  580O :  2.35
   43O :  2.35  238O :  2.30  196O :  2.28  286O :  2.26  589O :  2.22  445O :  2.21  424O :  2.18  298O :  2.17  319O :  2.16  415O :  2.14   46O :  2.07  172O :  2.06
  697O :  2.05  433O :  2.04  178O :  2.04  367O :  2.03  262O :  1.99  499O :  1.98  586O :  1.98  265O :  1.97  316O :  1.96  721O :  1.96  427O :  1.95  256O :  1.88
  163O :  1.87  661O :  1.87  625O :  1.87  493O :  1.86  184O :  1.84  193O :  1.79  496O :  1.79  439O :  1.79  205O :  1.75   28O :  1.75  106O :  1.73  733O :  1.72
   94O :  1.67  463O :  1.67  502O :  1.65   13O :  1.64  130O :  1.63  169O :  1.62  109O :  1.60  583O :  1.58  634O :  1.52  151O :  1.51   91O :  1.49  674H :  1.48
  517O :  1.47  526O :  1.46   88O :  1.45   67O :  1.41  229O :  1.40  751O :  1.39  646O :  1.38  742O :  1.38  115O :  1.38  333H :  1.37  460O :  1.37  541O :  1.36
  478O :  1.34  328O :  1.34  601O :  1.31  535O :  1.28  640O :  1.27  214O :  1.24  382O :  1.20   52O :  1.20  600H :  1.20  572H :  1.17  280O :  1.16  241O :  1.16
   31O :  1.15  139O :  1.15  112O :  1.11  244O :  1.10   16O :  1.10  220O :  1.10  685O :  1.08  570H :  1.05  523O :  1.05  235O :  1.04  361O :  1.03  543H :  1.02
  701H :  1.02  679O :  1.00  352O :  1.00  343O :  0.97  405H :  0.97  706O :  0.96  688O :  0.93  160O :  0.93  358O :  0.91  289O :  0.89  705H :  0.88  621H :  0.87
  631O :  0.86  643O :  0.83   11H :  0.83  511O :  0.83  134H :  0.79  664O :  0.78  186H :  0.75  564H :  0.75  357H :  0.73   20H :  0.71  616O :  0.70  346O :  0.70
  292O :  0.70  251H :  0.69    4O :  0.68  504H :  0.67  691O :  0.66  450H :  0.66   55O :  0.66  416H :  0.64  695H :  0.62  350H :  0.62  484O :  0.62  516H :  0.58
  659H :  0.56  731H :  0.55  307O :  0.55  296H :  0.53  303H :  0.53  713H :  0.53   61O :  0.53  397O :  0.52  414H :  0.52  176H :  0.50  225H :  0.49  509H :  0.48
  708H :  0.48   83H :  0.48  545H :  0.48  108H :  0.48   33H :  0.47  306H :  0.47  337O :  0.47  420H :  0.46  189H :  0.46   73O :  0.45  553O :  0.45  561H :  0.45
  261H :  0.45  351H :  0.44  638H :  0.43  125H :  0.42  105H :  0.42  645H :  0.42  302H :  0.41  653H :  0.41  167H :  0.41  483H :  0.41  276H :  0.41  575H :  0.41
  389H :  0.40  466O :  0.39  419H :  0.39  285H :  0.39  451O :  0.39  585H :  0.38   81H :  0.37  435H :  0.37  635H :  0.37  375H :  0.37  354H :  0.36   48H :  0.36
  563H :  0.36  470H :  0.36  540H :  0.36   24H :  0.35  369H :  0.34  131H :  0.34  560H :  0.33  668H :  0.33  327H :  0.32  198H :  0.32  150H :  0.32  258H :  0.31
  440H :  0.31  725H :  0.31  305H :  0.30  101H :  0.30  143H :  0.30  330H :  0.30  528H :  0.29  374H :  0.29  609H :  0.29  219H :  0.28    2H :  0.28  681H :  0.28
  443H :  0.28  736O :  0.28  702H :  0.28  377H :  0.27   71H :  0.27  137H :  0.27  209H :  0.27   26H :  0.27  240H :  0.27  522H :  0.27  390H :  0.27   51H :  0.26
  315H :  0.26  539H :  0.26  531H :  0.25  714H :  0.25  438H :  0.25  402H :  0.25  624H :  0.25    5H :  0.24  120H :  0.24  696H :  0.24  158H :  0.24  444H :  0.24
  195H :  0.24  468H :  0.24   15H :  0.24  550O :  0.23  593H :  0.23   95H :  0.22  549H :  0.22  102H :  0.22   42H :  0.22  611H :  0.22  182H :  0.22  692H :  0.22
  747H :  0.22  722H :  0.22  387H :  0.21  353H :  0.21  627H :  0.21  155H :  0.21  542H :  0.21  284H :  0.21  200H :  0.21  524H :  0.20  191H :  0.20  660H :  0.20
   35H :  0.20  521H :  0.19  474H :  0.19  465H :  0.19  288H :  0.19  743H :  0.19  519H :  0.19  192H :  0.18  132H :  0.18  272H :  0.18  686H :  0.18  282H :  0.18
  264H :  0.18  329H :  0.18   59H :  0.18  753H :  0.18   92H :  0.18  689H :  0.18   87H :  0.17  455H :  0.17  476H :  0.17  429H :  0.17  372H :  0.17  300H :  0.16
  332H :  0.16  297H :  0.16  480H :  0.16   84H :  0.16  156H :  0.16  266H :  0.16  127O :  0.16  473H :  0.16  486H :  0.15  204H :  0.15  149H :  0.15  494H :  0.15
  218H :  0.15  507H :  0.15  488H :  0.15  342H :  0.15  501H :  0.15  122H :  0.14  485H :  0.14  546H :  0.14  576H :  0.14  152H :  0.14  188H :  0.14  348H :  0.14
  477H :  0.14  170H :  0.14  278H :  0.14  732H :  0.14  138H :  0.14  579H :  0.13  203H :  0.13  590H :  0.13  234H :  0.13  197H :  0.13  618H :  0.13  651H :  0.12
    9H :  0.12   54H :  0.12  704H :  0.12  318H :  0.12  623H :  0.12  597H :  0.12  447H :  0.12  293H :  0.12  233H :  0.12   38H :  0.11  434H :  0.11   57H :  0.11
  683H :  0.11   44H :  0.11  168H :  0.11   12H :  0.11   90H :  0.11  314H :  0.10  245H :  0.10  140H :  0.10  401H :  0.10  608H :  0.10  383H :  0.10  636H :  0.10
  566H :  0.10  123H :  0.10  707H :  0.10  711H :  0.10  207H :  0.10  362H :  0.10  299H :  0.10  492H :  0.10  650H :  0.10  413H :  0.10  210H :  0.09  183H :  0.09
  275H :  0.09  456H :  0.09  518H :  0.09  141H :  0.09  180H :  0.09  741H :  0.09  654H :  0.09  153H :  0.09  740H :  0.09  423H :  0.09  606H :  0.09  648H :  0.08
  594H :  0.08   14H :  0.08  680H :  0.08   77H :  0.08  339H :  0.08  617H :  0.08   99H :  0.08  581H :  0.08  666H :  0.08  446H :  0.08   41H :  0.07  171H :  0.07
  311H :  0.07  428H :  0.07  471H :  0.07  161H :  0.07
    6 LP   *******   0.00  15.90589 -25.47177   5.82085  622O : 14.70  676O : 14.67  181O : 12.12  505O : 10.96  145O : 10.87   22O : 10.28  421O : 10.03  334O :  9.61  712O :  9.45  100O :  9.30  406O :  9.20  166O :  9.12
  673O :  9.09  547O :  9.08  703O :  8.80   40O :  8.70  301O :  8.43  217O :  8.20  436O :  8.18   37O :  7.87   64O :  7.77  247O :  7.77  694O :  7.65  271O :  7.62
  574O :  7.57  253O :  7.53  718O :  7.49  565O :  7.48  754O :  7.37  715O :  7.28  568O :  7.09   34O :  7.06  364O :  6.84  202O :  6.84  370O :  6.64  700O :  6.55
  385O :  6.44  226O :  6.13  394O :  6.01  211O :  5.86  304O :  5.81  682O :  5.76  724O :  5.73  391O :  5.69  148O :  5.65  532O :  5.51  283O :  5.45   10O :  5.29
  739O :  5.23  652O :  5.19  310O :  5.17  559O :  5.12  103O :  5.06  199O :  5.03  430O :  5.02  349O :  4.97  628O :  4.89    7O :  4.89  250O :  4.80  133O :  4.79
  562O :  4.74  379O :  4.66  121O :  4.65  607O :  4.63  487O :  4.61  595O :  4.59  448O :  4.58    1O :  4.56   25O :  4.37  619O :  4.35  610O :  4.34  670O :  4.32
  175O :  4.31  709O :  4.31  376O :  4.28  154O :  4.26  481O :  4.26  208O :  4.20  268O :  4.14  355O :  4.14  118O :  4.10  538O :  4.07  313O :  3.89  340O :  3.87
  730O :  3.84   82O :  3.84  490O :  3.82  667O :  3.65  223O :  3.59  748O :  3.57  277O :  3.57  472O :  3.51  592O :  3.50  556O :  3.49  403O :  3.49  295O :  3.47
  544O :  3.43  520O :  3.41  508O :  3.38  649O :  3.37  136O :  3.30  577O :  3.12   58O :  3.12  187O :  3.09  571O :  3.08   85O :  3.07   97O :  3.07  331O :  3.07
  613O :  3.07  514O :  3.01  388O :  3.01  142O :  3.01   19O :  2.97  157O :  2.94  274O :  2.94  322O :  2.93  124O :  2.88  418O :  2.81  442O :  2.78  190O :  2.76
  637O :  2.76  412O :  2.75  409O :  2.74  325O :  2.71  475O :  2.66  259O :  2.66  529O :  2.64  598O :  2.64   49O :  2.59  655O :  2.56   79O :  2.56  373O :  2.55
  727O :  2.52  469O :  2.50   76O :  2.48  604O :  2.45   70O :  2.44  457O :  2.44  658O :  2.42  454O :  2.38  745O :  2.36  400O :  2.35  232O :  2.32   43O :  2.29
  580O :  2.29  238O :  2.24  424O :  2.23  196O :  2.22  286O :  2.20  589O :  2.17  445O :  2.15  298O :  2.11  319O :  2.11  415O :  2.08   46O :  2.01  172O :  2.01
  433O :  1.99  178O :  1.98  367O :  1.98  697O :  1.98  262O :  1.95  499O :  1.93  586O :  1.93  265O :  1.92  316O :  1.91  721O :  1.91  427O :  1.89  256O :  1.84
  163O :  1.82  661O :  1.82  493O :  1.81  625O :  1.80  184O :  1.79  193O :  1.75  439O :  1.74  496O :  1.74   28O :  1.71  205O :  1.71  106O :  1.68  733O :  1.67
   94O :  1.63  463O :  1.63  502O :  1.61   13O :  1.59  130O :  1.59  169O :  1.58  109O :  1.56  583O :  1.54  634O :  1.48  151O :  1.47   91O :  1.45  674H :  1.45
  517O :  1.44  526O :  1.42   88O :  1.41   67O :  1.38  229O :  1.37  751O :  1.36  646O :  1.35  742O :  1.34  115O :  1.34  333H :  1.33  460O :  1.33  541O :  1.33
  478O :  1.31  328O :  1.30  601O :  1.27  535O :  1.24  640O :  1.23  214O :  1.20  382O :  1.17   52O :  1.17  600H :  1.16  572H :  1.14  280O :  1.13  241O :  1.13
   31O :  1.12  139O :  1.12  112O :  1.08  244O :  1.07   16O :  1.07  220O :  1.07  701H :  1.06  685O :  1.05  570H :  1.02  523O :  1.02  235O :  1.01  361O :  1.00
  543H :  1.00  679O :  0.98  352O :  0.97  343O :  0.95  405H :  0.95  706O :  0.94  688O :  0.91  160O :  0.91  358O :  0.89  289O :  0.87  705H :  0.85  621H :  0.85
  631O :  0.84  511O :  0.81   11H :  0.80  643O :  0.79  134H :  0.77  664O :  0.76  186H :  0.73  564H :  0.73  357H :  0.71   20H :  0.69  616O :  0.69  346O :  0.68
  292O :  0.68  251H :  0.67    4O :  0.66  504H :  0.65  691O :  0.65  450H :  0.64   55O :  0.64  416H :  0.62  695H :  0.61  350H :  0.60  484O :  0.60  516H :  0.57
  659H :  0.55  307O :  0.53  731H :  0.53  303H :  0.52  296H :  0.52  713H :  0.51   61O :  0.51  397O :  0.51  414H :  0.50  176H :  0.49  225H :  0.47  509H :  0.47
  708H :  0.47   83H :  0.47  545H :  0.46  108H :  0.46   33H :  0.46  306H :  0.46  337O :  0.45  420H :  0.45  189H :  0.44   73O :  0.44  553O :  0.44  561H :  0.44
  261H :  0.44  351H :  0.42  105H :  0.42  638H :  0.42  125H :  0.41  302H :  0.41  645H :  0.41  653H :  0.40  167H :  0.40  483H :  0.40  276H :  0.40  575H :  0.39
  389H :  0.39  466O :  0.38  419H :  0.38  585H :  0.38  285H :  0.38  451O :  0.38   81H :  0.36  435H :  0.36  635H :  0.36  375H :  0.36  354H :  0.35   48H :  0.35
  563H :  0.35  470H :  0.35  540H :  0.35   24H :  0.34  369H :  0.33  131H :  0.33  560H :  0.32  668H :  0.32  327H :  0.31  198H :  0.31  150H :  0.31  258H :  0.31
  440H :  0.30  725H :  0.30  305H :  0.29  101H :  0.29  143H :  0.29  330H :  0.29  528H :  0.29  374H :  0.28  609H :  0.28  443H :  0.28    2H :  0.28  681H :  0.28
  736O :  0.27  702H :  0.27  219H :  0.27  377H :  0.27   71H :  0.27  137H :  0.26  209H :  0.26   26H :  0.26  240H :  0.26  522H :  0.26  390H :  0.26   51H :  0.26
  315H :  0.25  539H :  0.25  531H :  0.25  714H :  0.25  438H :  0.24  402H :  0.24  624H :  0.24    5H :  0.24  444H :  0.24  696H :  0.24  120H :  0.24  195H :  0.23
  468H :  0.23   15H :  0.23  158H :  0.23  550O :  0.23  593H :  0.22   95H :  0.22  549H :  0.22  102H :  0.22   42H :  0.21  611H :  0.21  692H :  0.21  182H :  0.21
  747H :  0.21  722H :  0.21  387H :  0.21  353H :  0.21  155H :  0.21  542H :  0.21  627H :  0.20  284H :  0.20  200H :  0.20  524H :  0.20  191H :  0.20  660H :  0.19
   35H :  0.19  521H :  0.19  465H :  0.19  474H :  0.19  288H :  0.18  743H :  0.18  519H :  0.18  192H :  0.18  132H :  0.18  272H :  0.18  686H :  0.18  282H :  0.18
  264H :  0.18  329H :  0.17   59H :  0.17  753H :  0.17   92H :  0.17  689H :  0.17   87H :  0.17  455H :  0.17  476H :  0.17  429H :  0.16  372H :  0.16  300H :  0.16
  332H :  0.16  297H :  0.16  480H :  0.16   84H :  0.16  156H :  0.16  266H :  0.16  127O :  0.15  473H :  0.15  486H :  0.15  204H :  0.15  149H :  0.15  494H :  0.15
  488H :  0.15  342H :  0.14  501H :  0.14  122H :  0.14  218H :  0.14  485H :  0.14  546H :  0.14  576H :  0.14  152H :  0.14  188H :  0.14  348H :  0.14  477H :  0.14
  423H :  0.14  170H :  0.13  278H :  0.13  138H :  0.13  732H :  0.13  579H :  0.13  203H :  0.13  590H :  0.13  234H :  0.13  197H :  0.12  618H :  0.12  651H :  0.12
    9H :  0.12   54H :  0.12  704H :  0.12  318H :  0.12  623H :  0.12  597H :  0.12  447H :  0.11  293H :  0.11  233H :  0.11   38H :  0.11  434H :  0.11   57H :  0.11
  683H :  0.11   44H :  0.11  168H :  0.11   12H :  0.10   90H :  0.10  314H :  0.10  245H :  0.10  140H :  0.10  401H :  0.10  608H :  0.10  383H :  0.10  636H :  0.10
  566H :  0.10  123H :  0.10  707H :  0.10  711H :  0.10  207H :  0.10  362H :  0.10  299H :  0.10  492H :  0.09  650H :  0.09  413H :  0.09  210H :  0.09  275H :  0.09
  183H :  0.09  456H :  0.09  518H :  0.09  141H :  0.09  507H :  0.09  180H :  0.09  741H :  0.09  654H :  0.09  153H :  0.09  740H :  0.08  396H :  0.08  606H :  0.08
  648H :  0.08  594H :  0.08   14H :  0.08  680H :  0.08   77H :  0.08  339H :  0.08  617H :  0.08  581H :  0.07   99H :  0.07  666H :  0.07  446H :  0.07   41H :  0.07
  171H :  0.07  311H :  0.07
    7 LP   *******   0.00  23.70313  -9.98381   6.42523  622O : 13.96  676O : 13.84  181O : 11.46  301O : 10.94  145O : 10.26   22O :  9.71  421O :  9.47  334O :  9.08  712O :  8.92  100O :  8.78  406O :  8.69  166O :  8.62
  673O :  8.59  547O :  8.57  703O :  8.31   40O :  8.22  505O :  8.19  217O :  7.75  436O :  7.73   37O :  7.43   64O :  7.34  247O :  7.34  694O :  7.22  271O :  7.19
  574O :  7.15  253O :  7.11  718O :  7.08  565O :  7.07  754O :  6.96  715O :  6.88  568O :  6.70   34O :  6.67  364O :  6.46  202O :  6.46  370O :  6.27  700O :  6.18
  385O :  6.08  226O :  5.79  394O :  5.69  211O :  5.53  304O :  5.49  724O :  5.47  682O :  5.44  391O :  5.37  148O :  5.34  532O :  5.20  283O :  5.15   10O :  5.00
  739O :  4.93  652O :  4.91  310O :  4.88  559O :  4.83  103O :  4.78  199O :  4.75  430O :  4.74  349O :  4.69  628O :  4.62    7O :  4.62  250O :  4.53  562O :  4.48
  133O :  4.45  121O :  4.40  379O :  4.40  607O :  4.37  487O :  4.36  595O :  4.34  448O :  4.32    1O :  4.30   25O :  4.13  619O :  4.11  610O :  4.10  670O :  4.08
  175O :  4.07  709O :  4.07  376O :  4.05  154O :  4.03  481O :  4.02  208O :  3.97  268O :  3.91  355O :  3.91  118O :  3.87  538O :  3.84  313O :  3.68  340O :  3.65
   82O :  3.62  490O :  3.60  667O :  3.45  730O :  3.41  223O :  3.39  748O :  3.37  277O :  3.37  472O :  3.31  592O :  3.31  556O :  3.30  403O :  3.30  295O :  3.28
  544O :  3.24  520O :  3.22  508O :  3.19  649O :  3.18  136O :  3.11  577O :  2.95   58O :  2.94  187O :  2.91  571O :  2.91   85O :  2.90  331O :  2.90   97O :  2.90
  613O :  2.90  514O :  2.85  388O :  2.85  142O :  2.84   19O :  2.81  274O :  2.78  157O :  2.77  322O :  2.77  124O :  2.72  418O :  2.66  442O :  2.62  637O :  2.62
  190O :  2.61  412O :  2.60  409O :  2.59  325O :  2.56  475O :  2.52  259O :  2.51  529O :  2.49  598O :  2.49   49O :  2.45  655O :  2.42   79O :  2.41  373O :  2.41
  727O :  2.38  469O :  2.36   76O :  2.34  604O :  2.31   70O :  2.31  457O :  2.30  658O :  2.28  454O :  2.25  745O :  2.24  400O :  2.22  232O :  2.19   43O :  2.17
  580O :  2.17  238O :  2.12  424O :  2.10  196O :  2.10  286O :  2.08  589O :  2.04  445O :  2.03  298O :  1.99  319O :  1.99  415O :  1.97   46O :  1.90  172O :  1.90
  433O :  1.88  178O :  1.87  367O :  1.87  697O :  1.87  262O :  1.83  499O :  1.82  586O :  1.82  265O :  1.81  316O :  1.80  721O :  1.80  427O :  1.79  256O :  1.73
  163O :  1.72  661O :  1.72  625O :  1.72  493O :  1.70  184O :  1.69  193O :  1.65  496O :  1.65  439O :  1.64   28O :  1.61  205O :  1.61  106O :  1.59  733O :  1.58
   94O :  1.54  463O :  1.53  502O :  1.52   13O :  1.50  130O :  1.50  169O :  1.49  109O :  1.48  583O :  1.45  634O :  1.40  151O :  1.39   91O :  1.37  674H :  1.37
  517O :  1.36  526O :  1.34   88O :  1.33   67O :  1.30  229O :  1.29  751O :  1.28  646O :  1.28  742O :  1.27  115O :  1.27  333H :  1.26  460O :  1.26  541O :  1.26
  478O :  1.24  328O :  1.23  601O :  1.20  535O :  1.17  640O :  1.17  214O :  1.14  382O :  1.11   52O :  1.10  600H :  1.10  572H :  1.07  280O :  1.07  241O :  1.07
   31O :  1.06  139O :  1.05  112O :  1.02  244O :  1.01   16O :  1.01  220O :  1.01  685O :  0.99  570H :  0.97  523O :  0.96  235O :  0.96  361O :  0.95  543H :  0.94
  701H :  0.94  679O :  0.92  352O :  0.91  343O :  0.90  405H :  0.90  706O :  0.89  688O :  0.86  160O :  0.86  358O :  0.84  289O :  0.82  705H :  0.81  621H :  0.80
  631O :  0.79  511O :  0.76   11H :  0.76  643O :  0.75  664O :  0.71  134H :  0.71  186H :  0.69  564H :  0.69  357H :  0.67   20H :  0.65  616O :  0.65  346O :  0.65
  292O :  0.64  251H :  0.63    4O :  0.62  504H :  0.61  691O :  0.61  450H :  0.61   55O :  0.61  416H :  0.59  695H :  0.57  350H :  0.57  484O :  0.57  516H :  0.53
  659H :  0.52  307O :  0.50  731H :  0.50  296H :  0.49  713H :  0.49   61O :  0.48  397O :  0.48  414H :  0.47  176H :  0.46  225H :  0.45  509H :  0.44  708H :  0.44
   83H :  0.44  545H :  0.44  108H :  0.44   33H :  0.44  306H :  0.43  337O :  0.43  420H :  0.42  303H :  0.42  189H :  0.42   73O :  0.41  553O :  0.41  561H :  0.41
  261H :  0.41  351H :  0.40  638H :  0.39  125H :  0.39  105H :  0.39  645H :  0.38  653H :  0.38  167H :  0.38  483H :  0.38  276H :  0.37  575H :  0.37  389H :  0.37
  466O :  0.36  419H :  0.36  285H :  0.36  451O :  0.35  585H :  0.35   81H :  0.34  435H :  0.34  635H :  0.34  375H :  0.34  354H :  0.34   48H :  0.33  563H :  0.33
  470H :  0.33  540H :  0.33   24H :  0.32  302H :  0.32  369H :  0.32  131H :  0.31  560H :  0.31  668H :  0.30  327H :  0.30  198H :  0.29  150H :  0.29  258H :  0.29
  440H :  0.29  725H :  0.28  305H :  0.27  101H :  0.27  143H :  0.27  330H :  0.27  528H :  0.27  374H :  0.27  609H :  0.27    2H :  0.26  681H :  0.26  443H :  0.26
  736O :  0.26  702H :  0.26  219H :  0.25  377H :  0.25   71H :  0.25  137H :  0.25  209H :  0.25   26H :  0.25  240H :  0.25  522H :  0.25  390H :  0.24   51H :  0.24
  315H :  0.24  539H :  0.24  531H :  0.23  714H :  0.23  624H :  0.23  438H :  0.23  402H :  0.23    5H :  0.22  120H :  0.22  696H :  0.22  444H :  0.22  195H :  0.22
  468H :  0.22   15H :  0.22  158H :  0.22  550O :  0.21  593H :  0.21   95H :  0.21  549H :  0.20  102H :  0.20   42H :  0.20  611H :  0.20  182H :  0.20  692H :  0.20
  747H :  0.20  722H :  0.20  387H :  0.20  353H :  0.20  627H :  0.20  155H :  0.20  542H :  0.19  284H :  0.19  200H :  0.19  524H :  0.19  191H :  0.19  660H :  0.18
   35H :  0.18  521H :  0.18  474H :  0.18  465H :  0.18  264H :  0.18  288H :  0.17  743H :  0.17  519H :  0.17  192H :  0.17  132H :  0.17  272H :  0.17  686H :  0.17
  282H :  0.17  329H :  0.16   59H :  0.16  753H :  0.16   92H :  0.16  689H :  0.16   87H :  0.16  455H :  0.16  476H :  0.16  429H :  0.15  372H :  0.15  300H :  0.15
  332H :  0.15  297H :  0.15  480H :  0.15   84H :  0.15  156H :  0.15  266H :  0.15  507H :  0.15  127O :  0.14  473H :  0.14  486H :  0.14  204H :  0.14  149H :  0.14
  494H :  0.14  488H :  0.14  342H :  0.13  501H :  0.13  122H :  0.13  218H :  0.13  485H :  0.13  546H :  0.13  576H :  0.13  152H :  0.13  188H :  0.13  348H :  0.13
  477H :  0.13  423H :  0.13  170H :  0.13  278H :  0.13  138H :  0.13  579H :  0.12  203H :  0.12  590H :  0.12  234H :  0.12  197H :  0.12  618H :  0.12  651H :  0.11
    9H :  0.11   54H :  0.11  704H :  0.11  318H :  0.11  597H :  0.11  623H :  0.11  447H :  0.11  293H :  0.11  233H :  0.11   38H :  0.11  434H :  0.10   57H :  0.10
   44H :  0.10  683H :  0.10  168H :  0.10   12H :  0.10   90H :  0.10  314H :  0.10  245H :  0.10  140H :  0.10  401H :  0.10  608H :  0.09  383H :  0.09  636H :  0.09
  566H :  0.09  123H :  0.09  707H :  0.09  711H :  0.09  207H :  0.09  362H :  0.09  299H :  0.09  492H :  0.09  650H :  0.09  413H :  0.09  210H :  0.09  183H :  0.09
  275H :  0.09  456H :  0.09  518H :  0.09  141H :  0.09  180H :  0.09  741H :  0.08  654H :  0.08  153H :  0.08  740H :  0.08  606H :  0.08  648H :  0.08  594H :  0.07
   14H :  0.07  680H :  0.07  617H :  0.07   77H :  0.07  339H :  0.07  581H :  0.07   99H :  0.07
    8 LP   *******   0.00 -19.97549 -34.95998  37.06516  622O : 13.53  676O : 13.50  181O : 11.19  100O : 10.86  145O : 10.00   22O :  9.47  421O :  9.23  334O :  8.84  712O :  8.69  406O :  8.46  166O :  8.39  673O :  8.37
  547O :  8.35  703O :  8.10   40O :  8.01  505O :  7.95  301O :  7.71  217O :  7.55  436O :  7.53   37O :  7.24   64O :  7.15  247O :  7.15  694O :  7.04  271O :  7.00
  574O :  6.97  253O :  6.93  718O :  6.89  565O :  6.89  754O :  6.78  715O :  6.70  568O :  6.53   34O :  6.50  202O :  6.32  364O :  6.30  370O :  6.11  700O :  6.01
  385O :  5.92  226O :  5.65  394O :  5.54  211O :  5.39  304O :  5.35  682O :  5.30  724O :  5.29  391O :  5.24  148O :  5.20  532O :  5.07  283O :  5.02   10O :  4.87
  739O :  4.81  652O :  4.78  310O :  4.76  559O :  4.71  103O :  4.65  199O :  4.63  430O :  4.63  349O :  4.57  628O :  4.53    7O :  4.50  133O :  4.46  250O :  4.42
  562O :  4.37  121O :  4.29  379O :  4.29  607O :  4.26  487O :  4.24  595O :  4.23  448O :  4.21    1O :  4.19   25O :  4.09  610O :  3.99  670O :  3.98  175O :  3.96
  619O :  3.96  376O :  3.94  154O :  3.92  481O :  3.92  208O :  3.87  268O :  3.81  355O :  3.81  709O :  3.78  118O :  3.77  538O :  3.74  313O :  3.58  340O :  3.56
  730O :  3.54  490O :  3.52   82O :  3.50  667O :  3.36  223O :  3.31  277O :  3.29  748O :  3.29  472O :  3.23  592O :  3.22  556O :  3.22  403O :  3.21  295O :  3.19
  544O :  3.15  520O :  3.13  508O :  3.11  649O :  3.10  136O :  3.04  577O :  2.87   58O :  2.87  187O :  2.84  571O :  2.84   85O :  2.83  331O :  2.82   97O :  2.82
  613O :  2.82  514O :  2.77  388O :  2.77  142O :  2.77   19O :  2.73  157O :  2.70  274O :  2.70  322O :  2.69  124O :  2.65  418O :  2.59  442O :  2.55  190O :  2.54
  637O :  2.54  412O :  2.53  409O :  2.52  325O :  2.50  475O :  2.45  259O :  2.44  529O :  2.43  598O :  2.43   49O :  2.39  655O :  2.36  373O :  2.35   79O :  2.35
  727O :  2.32  469O :  2.30   76O :  2.28  604O :  2.25   70O :  2.25  457O :  2.24  658O :  2.22  454O :  2.19  745O :  2.18  400O :  2.16  232O :  2.13   43O :  2.11
  580O :  2.11  238O :  2.06  424O :  2.05  196O :  2.05  286O :  2.03  589O :  1.98  445O :  1.98  298O :  1.94  319O :  1.94  415O :  1.92   46O :  1.85  172O :  1.85
  433O :  1.83  178O :  1.83  367O :  1.82  697O :  1.82  262O :  1.79  499O :  1.78  586O :  1.77  265O :  1.77  316O :  1.76  721O :  1.76  427O :  1.75  256O :  1.69
  163O :  1.68  661O :  1.68  625O :  1.67  493O :  1.67  184O :  1.65  193O :  1.61  439O :  1.60  496O :  1.60   28O :  1.57  205O :  1.57  106O :  1.55  733O :  1.54
   94O :  1.50  463O :  1.49  502O :  1.48   13O :  1.47  130O :  1.46  169O :  1.45  109O :  1.44  583O :  1.42  634O :  1.37  151O :  1.36   91O :  1.33  674H :  1.33
  517O :  1.32  526O :  1.31   88O :  1.29   67O :  1.27  229O :  1.26  751O :  1.25  646O :  1.24  742O :  1.24  115O :  1.23  333H :  1.23  460O :  1.22  541O :  1.22
  478O :  1.20  328O :  1.20  601O :  1.19  535O :  1.14  640O :  1.14  214O :  1.11  382O :  1.08   52O :  1.08  600H :  1.07  572H :  1.05  280O :  1.04  241O :  1.04
   31O :  1.03  139O :  1.03  112O :  0.99  244O :  0.99   16O :  0.98  685O :  0.97  220O :  0.96  570H :  0.95  523O :  0.94  235O :  0.93  361O :  0.92  543H :  0.92
  701H :  0.92  679O :  0.90  352O :  0.89  343O :  0.87  405H :  0.87  706O :  0.86  688O :  0.83  160O :  0.83  358O :  0.82  289O :  0.80  621H :  0.79  705H :  0.79
  631O :  0.77  511O :  0.74   11H :  0.74  643O :  0.73  134H :  0.71  664O :  0.70  186H :  0.68  564H :  0.67  357H :  0.65   20H :  0.63  616O :  0.63  346O :  0.63
  292O :  0.63  251H :  0.61    4O :  0.61  504H :  0.60  691O :  0.60  450H :  0.59   55O :  0.59  416H :  0.57  695H :  0.56  350H :  0.55  484O :  0.55  516H :  0.52
  659H :  0.51  731H :  0.49  307O :  0.49  296H :  0.48  303H :  0.48  713H :  0.47   61O :  0.47  397O :  0.47  414H :  0.46  176H :  0.45  225H :  0.44  509H :  0.43
  708H :  0.43   83H :  0.43  545H :  0.43  108H :  0.43   33H :  0.43  306H :  0.42  337O :  0.42  420H :  0.41  189H :  0.41   73O :  0.40  553O :  0.40  561H :  0.40
  261H :  0.40  351H :  0.39  638H :  0.38  125H :  0.38  105H :  0.38  645H :  0.37  302H :  0.37  653H :  0.37  167H :  0.37  483H :  0.37  276H :  0.36  575H :  0.36
  389H :  0.36  466O :  0.35  419H :  0.35  285H :  0.35  451O :  0.35  585H :  0.34   81H :  0.34  435H :  0.33  635H :  0.33  375H :  0.33  354H :  0.33   48H :  0.32
  563H :  0.32  470H :  0.32  540H :  0.32   24H :  0.31  369H :  0.31  131H :  0.30  560H :  0.30  668H :  0.29  327H :  0.29  198H :  0.29  150H :  0.29  258H :  0.28
  440H :  0.28  725H :  0.28  305H :  0.27  143H :  0.27  330H :  0.27  528H :  0.26  374H :  0.26  609H :  0.26    2H :  0.25  681H :  0.25  443H :  0.25  736O :  0.25
  702H :  0.25   26H :  0.25  219H :  0.25  377H :  0.25   71H :  0.24  137H :  0.24  209H :  0.24  240H :  0.24  522H :  0.24  390H :  0.24   51H :  0.23  315H :  0.23
  539H :  0.23  531H :  0.23  714H :  0.23  101H :  0.22  438H :  0.22  402H :  0.22  624H :  0.22    5H :  0.22  120H :  0.22  696H :  0.22  444H :  0.22  195H :  0.21
  468H :  0.21   15H :  0.21  158H :  0.21  550O :  0.21  593H :  0.20   95H :  0.20  549H :  0.20   42H :  0.20  611H :  0.20  182H :  0.20  692H :  0.20  747H :  0.19
  722H :  0.19  387H :  0.19  353H :  0.19  627H :  0.19  155H :  0.19  542H :  0.19  284H :  0.19  200H :  0.18  524H :  0.18  191H :  0.18  660H :  0.18   35H :  0.18
  521H :  0.17  474H :  0.17  465H :  0.17  288H :  0.17  743H :  0.17  519H :  0.17  192H :  0.17  132H :  0.17  272H :  0.17  686H :  0.17  282H :  0.17  264H :  0.16
  102H :  0.16  329H :  0.16   59H :  0.16  753H :  0.16   92H :  0.16  689H :  0.16   87H :  0.16  455H :  0.15  476H :  0.15  429H :  0.15  372H :  0.15  300H :  0.15
  332H :  0.15  297H :  0.15  480H :  0.14   84H :  0.14  156H :  0.14  266H :  0.14  127O :  0.14  473H :  0.14  486H :  0.14  204H :  0.14  149H :  0.14  494H :  0.14
  507H :  0.13  488H :  0.13  342H :  0.13  501H :  0.13  122H :  0.13  218H :  0.13  485H :  0.13  546H :  0.13  576H :  0.13  152H :  0.13  188H :  0.13  348H :  0.13
  477H :  0.12  423H :  0.12  170H :  0.12  278H :  0.12  732H :  0.12  138H :  0.12  579H :  0.12  203H :  0.12  590H :  0.12  234H :  0.12  197H :  0.11  618H :  0.11
  651H :  0.11    9H :  0.11   54H :  0.11  704H :  0.11  318H :  0.11  623H :  0.11  597H :  0.11  447H :  0.10  293H :  0.10  233H :  0.10   38H :  0.10  434H :  0.10
   57H :  0.10  683H :  0.10   44H :  0.10  168H :  0.10   12H :  0.10   90H :  0.09  314H :  0.09  245H :  0.09  140H :  0.09  401H :  0.09  608H :  0.09  383H :  0.09
  636H :  0.09  566H :  0.09  123H :  0.09  707H :  0.09  299H :  0.09  207H :  0.09  362H :  0.09  650H :  0.09  413H :  0.09  711H :  0.09  492H :  0.08  210H :  0.08
  275H :  0.08  456H :  0.08  183H :  0.08  518H :  0.08  141H :  0.08  180H :  0.08  741H :  0.08  710H :  0.08  654H :  0.08  153H :  0.08  740H :  0.08  606H :  0.08
  648H :  0.08  594H :  0.07   14H :  0.07  680H :  0.07
    9 LP   *******   0.00 -69.78334  -3.37889  -7.03822  622O : 12.87  676O : 12.84  334O : 10.98  181O : 10.62  145O :  9.51   22O :  9.01  421O :  8.78  712O :  8.27  100O :  8.14  406O :  8.05  166O :  7.99  673O :  7.96
  547O :  7.95  703O :  7.70   40O :  7.62  505O :  7.56  301O :  7.34  217O :  7.18  436O :  7.16   37O :  6.89   64O :  6.80  247O :  6.80  694O :  6.69  271O :  6.66
  574O :  6.63  253O :  6.59  718O :  6.56  565O :  6.55  754O :  6.46  715O :  6.37  568O :  6.21   34O :  6.18  364O :  5.99  202O :  5.99  370O :  5.81  700O :  5.72
  385O :  5.63  226O :  5.37  394O :  5.27  211O :  5.13  304O :  5.09  682O :  5.04  724O :  5.03  391O :  4.98  148O :  4.95  532O :  4.82  283O :  4.77   10O :  4.63
  739O :  4.57  652O :  4.55  310O :  4.52  559O :  4.48  103O :  4.43  199O :  4.40  430O :  4.39  349O :  4.35  628O :  4.28    7O :  4.28  133O :  4.25  250O :  4.20
  562O :  4.15  121O :  4.08  379O :  4.08  607O :  4.05  487O :  4.04  595O :  4.02  448O :  4.01    1O :  3.99   25O :  3.82  619O :  3.81  610O :  3.80  670O :  3.78
  175O :  3.77  709O :  3.77  376O :  3.75  154O :  3.73  481O :  3.72  208O :  3.68  268O :  3.63  355O :  3.62  118O :  3.59  538O :  3.56  313O :  3.41  340O :  3.39
  730O :  3.36   82O :  3.35  490O :  3.34  667O :  3.20  223O :  3.15  748O :  3.13  277O :  3.13  472O :  3.07  592O :  3.07  556O :  3.06  403O :  3.06  295O :  3.04
  544O :  3.00  520O :  2.98  508O :  2.96  649O :  2.95  136O :  2.89  577O :  2.73   58O :  2.73  187O :  2.71  571O :  2.70   85O :  2.69  331O :  2.69   97O :  2.69
  613O :  2.68  142O :  2.64  514O :  2.64  388O :  2.64   19O :  2.60  157O :  2.57  274O :  2.57  322O :  2.56  124O :  2.52  418O :  2.46  442O :  2.42  190O :  2.42
  637O :  2.42  412O :  2.41  409O :  2.40  325O :  2.38  475O :  2.33  259O :  2.32  529O :  2.31  598O :  2.31   49O :  2.26  655O :  2.25   79O :  2.24  373O :  2.24
  727O :  2.21  469O :  2.18   76O :  2.17   70O :  2.15  604O :  2.14  457O :  2.13  658O :  2.12  454O :  2.08  745O :  2.07  400O :  2.05  232O :  2.03   43O :  2.01
  580O :  2.01  238O :  1.96  424O :  1.95  196O :  1.94  286O :  1.93  589O :  1.90  445O :  1.88  298O :  1.85  319O :  1.85  415O :  1.82   46O :  1.76  172O :  1.76
  433O :  1.74  178O :  1.74  367O :  1.73  697O :  1.73  262O :  1.70  499O :  1.69  586O :  1.69  265O :  1.68  316O :  1.67  721O :  1.67  427O :  1.66  256O :  1.61
  163O :  1.60  661O :  1.59  625O :  1.59  493O :  1.59  184O :  1.57  193O :  1.53  496O :  1.53  439O :  1.52   28O :  1.49  205O :  1.49  106O :  1.47  733O :  1.46
   94O :  1.43  463O :  1.42  502O :  1.41  130O :  1.39   13O :  1.39  169O :  1.38  109O :  1.37  583O :  1.35  634O :  1.30  151O :  1.29   91O :  1.27  674H :  1.27
  517O :  1.26  526O :  1.24   88O :  1.23   67O :  1.21  229O :  1.20  751O :  1.19  646O :  1.18  742O :  1.18  115O :  1.17  333H :  1.17  460O :  1.17  541O :  1.16
  478O :  1.15  328O :  1.14  601O :  1.12  535O :  1.09  640O :  1.08   52O :  1.05  214O :  1.05  382O :  1.03  600H :  1.02  572H :  1.00  241O :  0.99   31O :  0.98
  139O :  0.98  280O :  0.95  112O :  0.94  244O :  0.94  220O :  0.93   16O :  0.93  685O :  0.92  570H :  0.90  523O :  0.89  235O :  0.89  361O :  0.88  543H :  0.87
  701H :  0.87  679O :  0.86  352O :  0.85  405H :  0.83  343O :  0.83  706O :  0.82  688O :  0.79  160O :  0.79  358O :  0.78  289O :  0.76  705H :  0.75  621H :  0.74
  631O :  0.73   11H :  0.70  511O :  0.70  643O :  0.69  134H :  0.67  186H :  0.64  564H :  0.63  357H :  0.62   20H :  0.60  616O :  0.60  346O :  0.60  292O :  0.60
  664O :  0.59  251H :  0.58    4O :  0.58   55O :  0.57  504H :  0.57  691O :  0.57  450H :  0.56  416H :  0.54  695H :  0.53  350H :  0.53  484O :  0.53  516H :  0.49
  659H :  0.48  731H :  0.47  307O :  0.47  296H :  0.45  303H :  0.45   61O :  0.45  713H :  0.45  397O :  0.45  414H :  0.44  176H :  0.43  225H :  0.42  509H :  0.41
  708H :  0.41   83H :  0.41  545H :  0.41  108H :  0.41   33H :  0.40  306H :  0.40  337O :  0.40  420H :  0.39  189H :  0.39   73O :  0.38  553O :  0.38  561H :  0.38
  261H :  0.38  351H :  0.37  638H :  0.36  125H :  0.36  105H :  0.36  645H :  0.35  302H :  0.35  653H :  0.35  167H :  0.35  483H :  0.35  276H :  0.35  575H :  0.35
  389H :  0.34  466O :  0.34  419H :  0.34  285H :  0.33  451O :  0.33  585H :  0.32  150H :  0.32   81H :  0.32  435H :  0.32  635H :  0.32  375H :  0.31  354H :  0.31
  563H :  0.31  470H :  0.31  540H :  0.30   48H :  0.30   24H :  0.30  369H :  0.29  131H :  0.29  560H :  0.28  668H :  0.28  327H :  0.27  198H :  0.27  258H :  0.27
  440H :  0.27  725H :  0.26  305H :  0.25  101H :  0.25  143H :  0.25  330H :  0.25  528H :  0.25  374H :  0.25  609H :  0.25    2H :  0.24  681H :  0.24  443H :  0.24
  736O :  0.24  702H :  0.24  219H :  0.24  377H :  0.23  137H :  0.23  209H :  0.23   26H :  0.23  522H :  0.23  240H :  0.23  390H :  0.23  315H :  0.22  539H :  0.22
  531H :  0.22  714H :  0.22   71H :  0.22  438H :  0.21  402H :  0.21  624H :  0.21   51H :  0.21    5H :  0.21  696H :  0.21  120H :  0.21  444H :  0.21  195H :  0.20
  468H :  0.20   15H :  0.20  158H :  0.20  550O :  0.20  593H :  0.19   95H :  0.19  549H :  0.19  102H :  0.19   42H :  0.19  611H :  0.19  182H :  0.19  692H :  0.19
  747H :  0.18  722H :  0.18  387H :  0.18  353H :  0.18  627H :  0.18  155H :  0.18  542H :  0.18  284H :  0.18  200H :  0.17  524H :  0.17  191H :  0.17  660H :  0.17
   35H :  0.17  521H :  0.17  474H :  0.17  465H :  0.17  288H :  0.16  743H :  0.16  519H :  0.16  192H :  0.16  272H :  0.16  686H :  0.16  132H :  0.16  264H :  0.16
  282H :  0.15  329H :  0.15   59H :  0.15  753H :  0.15   92H :  0.15  689H :  0.15   87H :  0.15  455H :  0.15  476H :  0.14  666H :  0.14  429H :  0.14  372H :  0.14
  300H :  0.14  332H :  0.14  297H :  0.14  480H :  0.14  156H :  0.14   84H :  0.14  266H :  0.14  149H :  0.13  127O :  0.13  473H :  0.13  486H :  0.13  204H :  0.13
  494H :  0.13  507H :  0.13  488H :  0.13  342H :  0.12  501H :  0.12  122H :  0.12  218H :  0.12  485H :  0.12  546H :  0.12  576H :  0.12  152H :  0.12  188H :  0.12
  348H :  0.12  477H :  0.12  423H :  0.12  170H :  0.12  278H :  0.12  732H :  0.12  138H :  0.12  579H :  0.11  203H :  0.11  590H :  0.11   54H :  0.11  234H :  0.11
  197H :  0.11  618H :  0.11  651H :  0.11    9H :  0.11  704H :  0.10  318H :  0.10  623H :  0.10  597H :  0.10  447H :  0.10  293H :  0.10  233H :  0.10   38H :  0.10
  434H :  0.10  683H :  0.10   44H :  0.10   57H :  0.09  168H :  0.09   12H :  0.09   90H :  0.09  314H :  0.09  245H :  0.09  140H :  0.09  401H :  0.09  608H :  0.09
[...]
   370   8 o    1.853 --   372 h    0.858   371 h    0.799
   371   1 h    0.873 --   370 o    0.799
   372   1 h    0.891 --   370 o    0.858
   373   8 o    1.844 --   375 h    0.873   374 h    0.853
   374   1 h    0.890 --   373 o    0.853
   375   1 h    0.896 --   373 o    0.873
   376   8 o    1.794 --   378 h    0.830   377 h    0.819
   377   1 h    0.888 --   376 o    0.819
   378   1 h    0.887 --   376 o    0.830
   379   8 o    1.828 --   380 h    0.859   381 h    0.844
   380   1 h    0.897 --   379 o    0.859
   381   1 h    0.896 --   379 o    0.844
   382   8 o    1.827 --   383 h    0.892   384 h    0.854
   383   1 h    0.904 --   382 o    0.892
   384   1 h    0.886 --   382 o    0.854
   385   8 o    1.855 --   386 h    0.868   387 h    0.819
   386   1 h    0.896 --   385 o    0.868
   387   1 h    0.885 --   385 o    0.819
   388   8 o    1.839 --   389 h    0.886   390 h    0.831
   389   1 h    0.902 --   388 o    0.886
   390   1 h    0.887 --   388 o    0.831
   391   8 o    1.857 --   393 h    0.819   392 h    0.801
   392   1 h    0.885 --   391 o    0.801
   393   1 h    0.891 --   391 o    0.819
   394   8 o    1.885 --   396 h    0.827   395 h    0.794
   395   1 h    0.871 --   394 o    0.794
   396   1 h    0.882 --   394 o    0.827
   397   8 o    1.839 --   399 h    0.793   398 h    0.785
   398   1 h    0.874 --   397 o    0.785
   399   1 h    0.873 --   397 o    0.793
   400   8 o    1.842 --   402 h    0.867   401 h    0.843
   401   1 h    0.885 --   400 o    0.843
   402   1 h    0.899 --   400 o    0.867
   403   8 o    1.878 --   404 h    0.840   405 h    0.770
   404   1 h    0.894 --   403 o    0.840
   405   1 h    0.871 --   403 o    0.770
   406   8 o    1.847 --   408 h    0.837   407 h    0.822
   407   1 h    0.880 --   406 o    0.822
   408   1 h    0.887 --   406 o    0.837
   409   8 o    1.846 --   410 h    0.871   411 h    0.802
   410   1 h    0.898 --   409 o    0.871
   411   1 h    0.875 --   409 o    0.802
   412   8 o    1.893 --   413 h    0.814   414 h    0.796
   413   1 h    0.883 --   412 o    0.814
   414   1 h    0.885 --   412 o    0.796
   415   8 o    1.821 --   416 h    0.885   417 h    0.831
   416   1 h    0.905 --   415 o    0.885
   417   1 h    0.889 --   415 o    0.831
   418   8 o    1.820 --   419 h    0.842   420 h    0.831
   419   1 h    0.896 --   418 o    0.842
   420   1 h    0.893 --   418 o    0.831
   421   8 o    1.828 --   422 h    0.870   423 h    0.809
   422   1 h    0.906 --   421 o    0.870
   423   1 h    0.885 --   421 o    0.809
   424   8 o    1.845 --   425 h    0.850   426 h    0.841
   425   1 h    0.893 --   424 o    0.850
   426   1 h    0.895 --   424 o    0.841
   427   8 o    1.863 --   429 h    0.811   428 h    0.798
   428   1 h    0.872 --   427 o    0.798
   429   1 h    0.875 --   427 o    0.811
   430   8 o    1.861 --   431 h    0.821   432 h    0.781
   431   1 h    0.883 --   430 o    0.821
   432   1 h    0.870 --   430 o    0.781
   433   8 o    1.844 --   435 h    0.878   434 h    0.809
   434   1 h    0.883 --   433 o    0.809
   435   1 h    0.904 --   433 o    0.878
   436   8 o    1.846 --   438 h    0.834   437 h    0.805
   437   1 h    0.879 --   436 o    0.805
   438   1 h    0.886 --   436 o    0.834
   439   8 o    1.870 --   441 h    0.888   440 h    0.812
   440   1 h    0.883 --   439 o    0.812
   441   1 h    0.902 --   439 o    0.888
   442   8 o    1.857 --   444 h    0.872   443 h    0.810
   443   1 h    0.886 --   442 o    0.810
   444   1 h    0.898 --   442 o    0.872
   445   8 o    1.869 --   447 h    0.804   446 h    0.794
   446   1 h    0.875 --   445 o    0.794
   447   1 h    0.883 --   445 o    0.804
   448   8 o    1.814 --   450 h    0.861   449 h    0.857
   449   1 h    0.894 --   448 o    0.857
   450   1 h    0.891 --   448 o    0.861
   451   8 o    1.868 --   452 h    0.790   453 h    0.789
   452   1 h    0.876 --   451 o    0.790
   453   1 h    0.877 --   451 o    0.789
   454   8 o    1.881 --   456 h    0.816   455 h    0.812
   455   1 h    0.873 --   454 o    0.812
   456   1 h    0.887 --   454 o    0.816
   457   8 o    1.851 --   458 h    0.816   459 h    0.807
   458   1 h    0.886 --   457 o    0.816
   459   1 h    0.884 --   457 o    0.807
   460   8 o    1.814 --   461 h    0.869   462 h    0.807
   461   1 h    0.899 --   460 o    0.869
   462   1 h    0.887 --   460 o    0.807
   463   8 o    1.857 --   465 h    0.870   464 h    0.827
   464   1 h    0.886 --   463 o    0.827
   465   1 h    0.896 --   463 o    0.870
   466   8 o    1.873 --   467 h    0.806   468 h    0.802
   467   1 h    0.876 --   466 o    0.806
   468   1 h    0.882 --   466 o    0.802
   469   8 o    1.855 --   471 h    0.838   470 h    0.837
   470   1 h    0.892 --   469 o    0.837
   471   1 h    0.882 --   469 o    0.838
   472   8 o    1.856 --   473 h    0.869   474 h    0.838
   473   1 h    0.895 --   472 o    0.869
   474   1 h    0.885 --   472 o    0.838
   475   8 o    1.851 --   477 h    0.863   476 h    0.823
   476   1 h    0.881 --   475 o    0.823
   477   1 h    0.894 --   475 o    0.863
   478   8 o    1.856 --   480 h    0.879   479 h    0.830
   479   1 h    0.887 --   478 o    0.830
   480   1 h    0.900 --   478 o    0.879
   481   8 o    1.844 --   482 h    0.850   483 h    0.842
   482   1 h    0.897 --   481 o    0.850
   483   1 h    0.888 --   481 o    0.842
   484   8 o    1.849 --   486 h    0.888   485 h    0.786
   485   1 h    0.866 --   484 o    0.786
   486   1 h    0.903 --   484 o    0.888
   487   8 o    1.822 --   489 h    0.891   488 h    0.822
   488   1 h    0.876 --   487 o    0.822
   489   1 h    0.908 --   487 o    0.891
   490   8 o    1.868 --   491 h    0.829   492 h    0.820
   491   1 h    0.882 --   490 o    0.829
   492   1 h    0.891 --   490 o    0.820
   493   8 o    1.855 --   494 h    0.835   495 h    0.821
   494   1 h    0.892 --   493 o    0.835
   495   1 h    0.879 --   493 o    0.821
   496   8 o    1.838 --   498 h    0.809   497 h    0.799
   497   1 h    0.882 --   496 o    0.799
   498   1 h    0.878 --   496 o    0.809
   499   8 o    1.826 --   501 h    0.871   500 h    0.827
   500   1 h    0.890 --   499 o    0.827
   501   1 h    0.900 --   499 o    0.871
   502   8 o    1.861 --   503 h    0.870   504 h    0.819
   503   1 h    0.896 --   502 o    0.870
   504   1 h    0.886 --   502 o    0.819
   505   8 o    1.860 --   506 h    0.856   507 h    0.827
   506   1 h    0.897 --   505 o    0.856
   507   1 h    0.887 --   505 o    0.827
   508   8 o    1.848 --   510 h    0.859   509 h    0.837
   509   1 h    0.892 --   508 o    0.837
   510   1 h    0.891 --   508 o    0.859
   511   8 o    1.840 --   513 h    0.846   512 h    0.812
   512   1 h    0.885 --   511 o    0.812
   513   1 h    0.890 --   511 o    0.846
   514   8 o    1.820 --   515 h    0.884   516 h    0.849
   515   1 h    0.902 --   514 o    0.884
   516   1 h    0.895 --   514 o    0.849
   517   8 o    1.828 --   519 h    0.842   518 h    0.839
   518   1 h    0.896 --   517 o    0.839
   519   1 h    0.888 --   517 o    0.842
   520   8 o    1.855 --   522 h    0.899   521 h    0.820
   521   1 h    0.875 --   520 o    0.820
   522   1 h    0.908 --   520 o    0.899
   523   8 o    1.851 --   525 h    0.831   524 h    0.826
   524   1 h    0.889 --   523 o    0.826
   525   1 h    0.890 --   523 o    0.831
   526   8 o    1.852 --   528 h    0.912   527 h    0.776
   527   1 h    0.880 --   526 o    0.776   682 o    0.101
   528   1 h    0.919 --   526 o    0.912
   529   8 o    1.863 --   531 h    0.838   530 h    0.822
   530   1 h    0.889 --   529 o    0.822
   531   1 h    0.880 --   529 o    0.838
   532   8 o    1.847 --   534 h    0.854   533 h    0.850
   533   1 h    0.888 --   532 o    0.850
   534   1 h    0.890 --   532 o    0.854
   535   8 o    1.843 --   536 h    0.880   537 h    0.854
   536   1 h    0.899 --   535 o    0.880
   537   1 h    0.889 --   535 o    0.854
   538   8 o    1.843 --   539 h    0.883   540 h    0.828
   539   1 h    0.903 --   538 o    0.883
   540   1 h    0.880 --   538 o    0.828
   541   8 o    1.834 --   543 h    0.817   542 h    0.808
   542   1 h    0.887 --   541 o    0.808
   543   1 h    0.888 --   541 o    0.817
   544   8 o    1.874 --   545 h    0.826   546 h    0.805
   545   1 h    0.888 --   544 o    0.826
   546   1 h    0.881 --   544 o    0.805
   547   8 o    1.869 --   548 h    0.826   549 h    0.811
   548   1 h    0.887 --   547 o    0.826
   549   1 h    0.887 --   547 o    0.811
   550   8 o    1.801 --   551 h    0.859   552 h    0.842
   551   1 h    0.896 --   550 o    0.859
   552   1 h    0.893 --   550 o    0.842
   553   8 o    1.858 --   554 h    0.867   555 h    0.866
   554   1 h    0.894 --   553 o    0.867
   555   1 h    0.893 --   553 o    0.866
   556   8 o    1.849 --   558 h    0.854   557 h    0.840
   557   1 h    0.889 --   556 o    0.840
   558   1 h    0.897 --   556 o    0.854
   559   8 o    1.858 --   561 h    0.912   560 h    0.773
   560   1 h    0.874 --   559 o    0.773
   561   1 h    0.916 --   559 o    0.912
   562   8 o    1.845 --   563 h    0.889   564 h    0.814
   563   1 h    0.905 --   562 o    0.889
   564   1 h    0.881 --   562 o    0.814
   565   8 o    1.848 --   567 h    0.857   566 h    0.821
   566   1 h    0.879 --   565 o    0.821
   567   1 h    0.897 --   565 o    0.857
   568   8 o    1.798 --   570 h    0.883   569 h    0.851
   569   1 h    0.896 --   568 o    0.851
   570   1 h    0.905 --   568 o    0.883
   571   8 o    1.866 --   572 h    0.882   573 h    0.814
   572   1 h    0.899 --   571 o    0.882
   573   1 h    0.871 --   571 o    0.814
   574   8 o    1.838 --   575 h    0.870   576 h    0.867
   575   1 h    0.899 --   574 o    0.870
   576   1 h    0.895 --   574 o    0.867
   577   8 o    1.834 --   579 h    0.828   578 h    0.824
   578   1 h    0.885 --   577 o    0.824
   579   1 h    0.882 --   577 o    0.828
   580   8 o    1.876 --   582 h    0.897   581 h    0.829
   581   1 h    0.886 --   580 o    0.829
   582   1 h    0.907 --   580 o    0.897
   583   8 o    1.812 --   584 h    0.860   585 h    0.809
   584   1 h    0.898 --   583 o    0.860
   585   1 h    0.877 --   583 o    0.809
   586   8 o    1.838 --   587 h    0.908   588 h    0.791
   587   1 h    0.917 --   586 o    0.908
   588   1 h    0.874 --   586 o    0.791
   589   8 o    1.847 --   591 h    0.880   590 h    0.820
   590   1 h    0.881 --   589 o    0.820
   591   1 h    0.898 --   589 o    0.880
   592   8 o    1.844 --   594 h    0.905   593 h    0.794
   593   1 h    0.877 --   592 o    0.794
   594   1 h    0.912 --   592 o    0.905
   595   8 o    1.828 --   596 h    0.904   597 h    0.814
   596   1 h    0.913 --   595 o    0.904
   597   1 h    0.875 --   595 o    0.814
   598   8 o    1.847 --   599 h    0.842   600 h    0.807
   599   1 h    0.890 --   598 o    0.842
   600   1 h    0.880 --   598 o    0.807
   601   8 o    1.846 --   602 h    0.853   603 h    0.822
   602   1 h    0.897 --   601 o    0.853
   603   1 h    0.882 --   601 o    0.822
   604   8 o    1.851 --   606 h    0.913   605 h    0.789
   605   1 h    0.877 --   604 o    0.789
   606   1 h    0.917 --   604 o    0.913
   607   8 o    1.848 --   609 h    0.833   608 h    0.828
   608   1 h    0.890 --   607 o    0.828
   609   1 h    0.888 --   607 o    0.833
   610   8 o    1.843 --   611 h    0.868   612 h    0.798
   611   1 h    0.899 --   610 o    0.868
   612   1 h    0.882 --   610 o    0.798
   613   8 o    1.848 --   614 h    0.871   615 h    0.855
   614   1 h    0.900 --   613 o    0.871
   615   1 h    0.893 --   613 o    0.855
   616   8 o    1.856 --   618 h    0.866   617 h    0.849
   617   1 h    0.897 --   616 o    0.849
   618   1 h    0.893 --   616 o    0.866
   619   8 o    1.851 --   620 h    0.840   621 h    0.806
   620   1 h    0.882 --   619 o    0.840
   621   1 h    0.883 --   619 o    0.806
   622   8 o    1.826 --   623 h    0.860   624 h    0.848
   623   1 h    0.895 --   622 o    0.860
   624   1 h    0.896 --   622 o    0.848
   625   8 o    1.823 --   627 h    0.875   626 h    0.840
   626   1 h    0.889 --   625 o    0.840
   627   1 h    0.902 --   625 o    0.875
   628   8 o    1.813 --   630 h    0.827   629 h    0.803
   629   1 h    0.878 --   628 o    0.803
   630   1 h    0.894 --   628 o    0.827
   631   8 o    1.881 --   633 h    0.838   632 h    0.802
   632   1 h    0.873 --   631 o    0.802
   633   1 h    0.879 --   631 o    0.838
   634   8 o    1.850 --   635 h    0.909   636 h    0.783
   635   1 h    0.915 --   634 o    0.909
   636   1 h    0.875 --   634 o    0.783
   637   8 o    1.840 --   638 h    0.896   639 h    0.775
   638   1 h    0.908 --   637 o    0.896
   639   1 h    0.872 --   637 o    0.775
   640   8 o    1.861 --   642 h    0.834   641 h    0.819
   641   1 h    0.872 --   640 o    0.819
   642   1 h    0.892 --   640 o    0.834
   643   8 o    1.825 --   645 h    0.906   644 h    0.785
   644   1 h    0.874 --   643 o    0.785
   645   1 h    0.915 --   643 o    0.906
   646   8 o    1.873 --   647 h    0.912   648 h    0.790
   647   1 h    0.917 --   646 o    0.912
   648   1 h    0.874 --   646 o    0.790
   649   8 o    1.872 --   650 h    0.886   651 h    0.832
   650   1 h    0.901 --   649 o    0.886
   651   1 h    0.884 --   649 o    0.832
   652   8 o    1.833 --   653 h    0.856   654 h    0.829
   653   1 h    0.885 --   652 o    0.856
   654   1 h    0.891 --   652 o    0.829
   655   8 o    1.845 --   657 h    0.855   656 h    0.808
   656   1 h    0.887 --   655 o    0.808
   657   1 h    0.896 --   655 o    0.855
   658   8 o    1.851 --   659 h    0.881   660 h    0.789
   659   1 h    0.902 --   658 o    0.881
   660   1 h    0.871 --   658 o    0.789
   661   8 o    1.857 --   662 h    0.892   663 h    0.863
   662   1 h    0.904 --   661 o    0.892
   663   1 h    0.892 --   661 o    0.863
   664   8 o    1.844 --   666 h    0.816   665 h    0.806
   665   1 h    0.872 --   664 o    0.806
   666   1 h    0.881 --   664 o    0.816
   667   8 o    1.842 --   669 h    0.907   668 h    0.818
   668   1 h    0.880 --   667 o    0.818
   669   1 h    0.914 --   667 o    0.907
   670   8 o    1.854 --   671 h    0.877   672 h    0.806
   671   1 h    0.900 --   670 o    0.877
   672   1 h    0.878 --   670 o    0.806
   673   8 o    1.831 --   675 h    0.832   674 h    0.815
   674   1 h    0.884 --   673 o    0.815
   675   1 h    0.886 --   673 o    0.832
   676   8 o    1.855 --   678 h    0.841   677 h    0.801
   677   1 h    0.877 --   676 o    0.801
   678   1 h    0.888 --   676 o    0.841
   679   8 o    1.840 --   681 h    0.857   680 h    0.828
   680   1 h    0.882 --   679 o    0.828
   681   1 h    0.890 --   679 o    0.857
   682   8 o    1.872 --   684 h    0.844   683 h    0.825   527 h    0.101
   683   1 h    0.891 --   682 o    0.825
   684   1 h    0.891 --   682 o    0.844
   685   8 o    1.883 --   686 h    0.828   687 h    0.808
   686   1 h    0.876 --   685 o    0.828
   687   1 h    0.882 --   685 o    0.808
   688   8 o    1.879 --   689 h    0.811   690 h    0.767
   689   1 h    0.883 --   688 o    0.811
   690   1 h    0.878 --   688 o    0.767   199 o    0.107
   691   8 o    1.835 --   693 h    0.838   692 h    0.838
   692   1 h    0.889 --   691 o    0.838
   693   1 h    0.887 --   691 o    0.838
   694   8 o    1.873 --   696 h    0.809   695 h    0.799
   695   1 h    0.877 --   694 o    0.799
   696   1 h    0.877 --   694 o    0.809
   697   8 o    1.858 --   698 h    0.847   699 h    0.824
   698   1 h    0.896 --   697 o    0.847
   699   1 h    0.880 --   697 o    0.824
   700   8 o    1.831 --   702 h    0.840   701 h    0.838
   701   1 h    0.890 --   700 o    0.838
   702   1 h    0.892 --   700 o    0.840
   703   8 o    1.864 --   705 h    0.860   704 h    0.836
   704   1 h    0.892 --   703 o    0.836
   705   1 h    0.900 --   703 o    0.860
   706   8 o    1.850 --   707 h    0.889   708 h    0.810
   707   1 h    0.903 --   706 o    0.889
   708   1 h    0.882 --   706 o    0.810
   709   8 o    1.827 --   711 h    0.895   710 h    0.799
   710   1 h    0.876 --   709 o    0.799
   711   1 h    0.908 --   709 o    0.895
   712   8 o    1.845 --   713 h    0.843   714 h    0.830
   713   1 h    0.891 --   712 o    0.843
   714   1 h    0.885 --   712 o    0.830
   715   8 o    1.860 --   716 h    0.835   717 h    0.813
   716   1 h    0.887 --   715 o    0.835
   717   1 h    0.874 --   715 o    0.813
   718   8 o    1.859 --   720 h    0.870   719 h    0.816
   719   1 h    0.884 --   718 o    0.816
   720   1 h    0.897 --   718 o    0.870
   721   8 o    1.839 --   723 h    0.854   722 h    0.832
   722   1 h    0.895 --   721 o    0.832
   723   1 h    0.893 --   721 o    0.854
   724   8 o    1.885 --   725 h    0.825   726 h    0.794
   725   1 h    0.890 --   724 o    0.825
   726   1 h    0.881 --   724 o    0.794
   727   8 o    1.884 --   729 h    0.863   728 h    0.817
   728   1 h    0.872 --   727 o    0.817
   729   1 h    0.893 --   727 o    0.863
   730   8 o    1.867 --   731 h    0.904   732 h    0.822
   731   1 h    0.909 --   730 o    0.904
   732   1 h    0.886 --   730 o    0.822
   733   8 o    1.829 --   735 h    0.850   734 h    0.841
   734   1 h    0.889 --   733 o    0.841
   735   1 h    0.890 --   733 o    0.850
   736   8 o    1.872 --   737 h    0.866   738 h    0.838
   737   1 h    0.893 --   736 o    0.866
   738   1 h    0.891 --   736 o    0.838
   739   8 o    1.869 --   741 h    0.821   740 h    0.806
   740   1 h    0.875 --   739 o    0.806
   741   1 h    0.879 --   739 o    0.821
   742   8 o    1.837 --   744 h    0.871   743 h    0.779
   743   1 h    0.875 --   742 o    0.779
   744   1 h    0.899 --   742 o    0.871
   745   8 o    1.848 --   746 h    0.823   747 h    0.798
   746   1 h    0.889 --   745 o    0.823
   747   1 h    0.877 --   745 o    0.798
   748   8 o    1.840 --   750 h    0.857   749 h    0.836
   749   1 h    0.885 --   748 o    0.836
   750   1 h    0.896 --   748 o    0.857
   751   8 o    1.834 --   753 h    0.882   752 h    0.765
   752   1 h    0.865 --   751 o    0.765
   753   1 h    0.893 --   751 o    0.882
   754   8 o    1.833 --   755 h    0.880   756 h    0.827
   755   1 h    0.897 --   754 o    0.880
   756   1 h    0.883 --   754 o    0.827
 ---------------------------------------------------------------------------

Topologies differ in total number of bonds
Writing topology from bond orders to xtbtopo.mol

molecular dipole:
                 x           y           z       tot (Debye)
 q only:       -1.394      -0.898       3.463
   full:       -1.604      -1.125       4.865      13.332
molecular quadrupole (traceless):
                xx          xy          yy          xz          yz          zz
 q only:       29.256      41.012      19.321      97.913      43.349     -48.576
  q+dip:       25.900      52.649      28.977     126.864      58.977     -54.877
   full:       26.787      52.226      27.257     126.495      59.113     -54.044


           -------------------------------------------------
          | TOTAL ENERGY            -1283.351957195613 Eh   |
          | GRADIENT NORM               0.053038664659 Eh/α |
          | HOMO-LUMO GAP               7.824935711427 eV   |
           -------------------------------------------------

------------------------------------------------------------------------
 * finished run on 2022/11/24 at 09:29:06.676     
------------------------------------------------------------------------
 total:
 * wall-time:     0 d,  0 h,  0 min, 56.599 sec
 *  cpu-time:     0 d,  0 h,  1 min, 11.263 sec
 * ratio c/w:     1.259 speedup
 SCF:
 * wall-time:     0 d,  0 h,  0 min, 55.572 sec
 *  cpu-time:     0 d,  0 h,  1 min,  9.552 sec
 * ratio c/w:     1.252 speedup

