756
 energy: -1283.346638262128 gnorm: 0.012258456582 xtb: 6.5.1 (579679a)
o           -1.71648209225001       -7.36078905598760       -3.19778534131910
h           -1.01605512523337       -7.32609903270596       -2.50961943856470
h           -2.45243341647025       -7.84304159144537       -2.81739856751008
o            1.27672349264928       -2.54600158738947       -1.95455705176213
h            1.46085874586588       -1.83443745040635       -2.61806719660327
h            1.43593688977815       -2.15364963409046       -1.09376144852427
o            2.71346774495268        1.32253877009875       -1.87799528306506
h            3.33136394982604        1.94406845953505       -2.31372689783933
h            3.27011688030836        0.89322708882909       -1.19678901276567
o            4.51145322574051        0.63164956769741       -0.09784998262176
h            4.43683631336316        0.12568024163962        0.72719152783317
h            4.75159904866083        1.55475287305462        0.13062987188029
o            1.63185239820156       -0.50456448488773       -3.51357126222119
h            0.70098285966495       -0.20793374030849       -3.43534187637900
h            2.12940029074067        0.15699428743442       -2.98225395871528
o           -4.72808716204185       -5.45966730966810        0.19742292758372
h           -5.28314979264483       -6.26550926190436        0.12534947177045
h           -5.30892458865332       -4.76414040509721        0.56268135639632
o            4.18112266128775       -0.88618219848252        2.16433006469998
h            3.50662545726565       -0.65566708866919        2.81509330272369
h            5.05315474528298       -0.62563687375517        2.52282254163976
o           -1.60454645773499       -3.20589532466660        1.13223564245467
h           -1.74641332837311       -4.11670100146471        0.84274422961257
h           -2.43991754563169       -2.73190483724192        0.91623293249479
o            3.88722891145426       -3.35016169488189        1.20528544977727
h            2.91593572356829       -3.31352934768031        1.29145313788271
h            4.18525621470442       -2.47999906811274        1.53908734920790
o            2.39735386038066        1.35802956420601        1.71940923627841
h            3.25336538746208        1.54995328140013        2.13850389779614
h            2.22797229689548        2.10944011649236        1.12142797265696
o            1.95092039569940        2.54112034374214        4.23087340617195
h            1.07020904480918        2.68346207173621        3.85225244289945
h            2.56780039506711        2.98215270742468        3.61581930553477
o           -1.40883511409239        1.24744174926590        4.58030125955289
h           -1.03723138496891        1.68694301659046        3.80155728920291
h           -0.71214570032909        0.66565473584256        4.94174032971983
o           -0.22873268487878       -4.74172183587702       -6.46135138423483
h           -1.19987683117913       -4.77675482092680       -6.58294623295353
h            0.04027634636331       -5.58433105680199       -6.06232850495519
o           -0.35786320359826        2.92036490445696        2.69593593697884
h            0.16487071840401        2.98774618080545        1.89126551083419
h           -1.00384152596664        3.64243867736523        2.63756466099452
o            4.52245240652030        3.18264509202359       -2.43301235287228
h            4.95292518258217        3.28738530840587       -1.57188855126487
h            3.86224163517237        3.90136738104248       -2.49332774047634
o           -2.78924244332214       -1.70582734033825       -6.57442581124415
h           -2.10275553841228       -1.39284317897635       -7.20048666795989
h           -2.48251263797989       -1.52212141288185       -5.67535634865721
o           -0.74638789055229        0.49190058276286       -2.96174586981812
h           -1.08038268446549        0.79555437749106       -3.81771147360417
h           -1.52099215608680        0.25753518070654       -2.40617930096156
o           -6.92520861819939       -0.17674725580199       -3.77696114708452
h           -6.99705382893397        0.36358178166797       -4.57426988301292
h           -6.38195898680045       -0.95447448144650       -3.98029361352019
o           -5.39056001417985        0.42150809299363       -1.54898321639012
h           -5.82103700964150       -0.41742390557279       -1.29488620116446
h           -5.24139265961909        0.94434684758641       -0.73186100730008
o           -4.73431039896480        4.22613911471117        1.94005893430688
h           -4.80506742990009        5.14537637132734        2.23118786369685
h           -4.09066971647950        3.81793706108293        2.54371470120174
o           -2.02626352770939        2.55549584780861       -4.29875739437408
h           -2.31010529427529        2.60612692481096       -3.37286009357584
h           -2.00715217068232        3.46523696430575       -4.64092817752811
o            2.24979078797089       -0.67862172163947       -6.19401790213701
h            1.81024286455112       -1.43800434048601       -6.61904782070435
h            2.00932619128058       -0.66753383546802       -5.24717947728199
o           -3.64100060869877       -1.96572646702554        0.08858024098155
h           -4.17875667270731       -1.48315209379769        0.74430701654533
h           -3.24632699691506       -1.27865231207053       -0.50050195466498
o           -2.70689392726230       -0.06631052574783       -1.37546044068903
h           -3.53816695573913        0.38807769169530       -1.56271701201577
h           -2.25682130501879        0.42413791264964       -0.58215144558948
o           -2.72572184431571       -1.27199707958782        3.71553947478303
h           -3.11671603014007       -2.07229413563860        3.32819371562017
h           -1.75248673680964       -1.32408076495559        3.55462127771250
o           -4.58770207756656        2.09906801755451        0.24422724844146
h           -4.26269781011941        1.80474457376092        1.10367187220471
h           -5.26905553205225        2.77920209135378        0.40798752644797
o           -0.74004720554038       -0.97522362212152       -8.15260176882531
h           -0.09399262987946       -1.69360871957190       -8.16007320673213
h           -0.20793283250869       -0.17057409897466       -8.28721872093634
o            3.90195606938811       -1.77454992206267       -1.12380658423641
h            3.70041708048595       -2.73247273868912       -1.14121999512081
h            3.23271801047785       -1.31557817774432       -0.60051525648614
o           -6.41817088314111       -2.05479940086181       -1.28904535640595
h           -7.33861918964445       -1.80558019708349       -1.50297608315833
h           -5.99037223273066       -2.26279760486450       -2.14245156522943
o            5.01365404564801        3.20324640941228        0.35348530460474
h            4.31262839618725        3.47947776628408        0.98055416692733
h            5.82804317139135        3.17858804369996        0.86531067961895
o           -7.56306313282123       -1.78442750644583       -6.11131684321007
h           -6.66893387387564       -1.40338436139823       -6.17183674649499
h           -7.51005727283868       -2.56065771532947       -5.52974947906585
o           -5.54400911734301       -2.01917091696734        4.38922906748033
h           -4.90056026394039       -1.81940900650065        5.06883520112838
h           -5.33814819124234       -1.45061467921633        3.62979727833827
o            2.78973587487651        3.40611538769081       -7.65173179389489
h            3.65062512980585        3.11696607461680       -7.28055281913161
h            2.43060345919574        2.61174410619016       -8.07007915068173
o            4.16606710108443       -4.91521057968102        3.29544397855844
h            4.17134730359473       -4.49378920157949        2.40845358865066
h            3.65246354903535       -4.30610807489176        3.84786466040654
o            6.36487568558531       -1.75363091640309       -0.08946724309956
h            6.68806735660096       -0.82496146706239       -0.02548545003561
h            5.48547435397395       -1.70808857662870       -0.50581233067198
o           -6.16431793069259       -3.37928355138004        1.05695876253824
h           -6.95480558395347       -3.25758172147112        1.63160370372468
h           -6.33109948601892       -2.93753152026459        0.19895317444189
o            1.82868549104019        3.22283934269431       -0.13515735486024
h            0.88453991593503        3.44223380463957       -0.24271546658176
h            2.06077367630729        2.61765605584172       -0.86728401723619
o           -0.11439854998640       -1.46399175437534        3.61897462804226
h            0.32569059708354       -1.96520505247389        2.91766271960781
h            0.06065731947217       -1.95314530119296        4.44129268115015
o           -2.86434016315469        2.95858573071109       -1.69245874357872
h           -3.47724033379166        2.65328974953557       -0.99908115950834
h           -3.19526216565313        3.82573157515992       -1.98660874108836
o            4.04301325990112        0.88452899613574       -4.37642236006824
h            4.01779222094101       -0.08454149775650       -4.31518121105029
h            4.67010914432089        1.16787048384817       -3.69318907055687
o            5.88673078044649       -6.73767436289814       -1.69263777476192
h            5.72838087253742       -5.90858393201907       -1.17050776510394
h            6.84602294464626       -6.79617506907069       -1.76209512571819
o            1.53719531898330        2.03245601943479       -4.99898638300850
h            0.95238514024062        1.27073966140428       -5.18432154781411
h            2.43044788591019        1.68394953626794       -4.84948237617907
o           -5.30388319952138       -2.41007862619975       -3.80831845467527
h           -5.38990619844015       -3.26942058637250       -4.25924742573934
h           -4.34409566376760       -2.25300747367249       -3.75386974112707
o           -4.77705792259880        1.84088745800809       -7.62466824470557
h           -4.86318745180753        2.80392183566032       -7.53790147535590
h           -3.81922350706382        1.68852181534395       -7.50388120961188
o            8.45949105485319       -1.37784920316746       -2.39780754753820
h            8.43743022420009       -0.47144130666127       -2.06587027653445
h            8.93335647298930       -1.33102123421202       -3.24459318737604
o            5.96970166184841        0.65982420828333       -2.38987982857415
h            6.81750888379164        1.03846623625429       -2.14496679239651
h            5.49602547379508        0.51813014662940       -1.55035786446221
o            2.28938681549738       -3.36618503959544       -4.52096230365814
h            3.00442939655785       -2.77594553565567       -4.17523997613345
h            1.52367282783812       -2.80055316947316       -4.71012959460820
o           -8.78990609559853       -1.16451752765973       -2.15047840808479
h           -9.25642994681537       -1.85341126564596       -2.65985358862654
h           -8.22922175541679       -0.67165238468613       -2.78717676221410
o            0.27729019757360        4.94042832404150        4.63799760190033
h            1.17224767334205        4.92126189741961        5.03741735074335
h            0.39704430906341        4.83051799263847        3.68195959819867
o           -4.82650427221084        2.93276052750721       -4.39415162732369
h           -5.49995321393070        2.84821747885084       -3.67467475597437
h           -4.22635599289085        2.16583441646025       -4.27565724791727
o            3.23189975235364       -4.33031704774607       -1.60932347249146
h            3.56230135010019       -4.75905414566904       -2.42035796144622
h            2.33755853522808       -3.99518443873840       -1.79826458666255
o           -0.35215127382846        0.19775542925304       -5.57328714352689
h           -0.26705219212353       -0.76767612387715       -5.54704786716140
h           -0.98834501980446        0.44085930409854       -6.26107427091608
o            5.67532502916004        6.50908747550579       -0.28980823521239
h            4.89401009714811        6.01577312417446        0.04822044052616
h            5.28434903623388        7.06577664645816       -0.98305715629461
o            4.82230310120063        3.81232596280374        4.86668027258352
h            5.11470905567247        3.27902456618182        5.62969121239397
h            4.67865715422801        3.17332965228782        4.13543886042621
o            2.57232881854684        2.11108968403942        6.89425040107163
h            2.75028149953682        1.15191124072925        6.96135575004566
h            2.35937380180396        2.27264135655086        5.95512229880101
o            7.27988093829425        0.65895599676388        0.34022520883503
h            7.09241338208678        0.54890342117451        1.28438844043843
h            8.24342217479947        0.55460074604594        0.25435044060236
o           -8.17847425852528        2.82636689057774        2.25900353341648
h           -7.39634024758924        2.24517777349889        2.32876775984399
h           -8.43719453162210        3.00676985784077        3.17711713503665
o           -3.45761244781297        1.11020015109882        2.64034225383700
h           -3.15008686004415        1.79445537021567        3.25516710129492
h           -3.26246032431832        0.23647142806091        3.04564928593343
o           -4.67014717751738       -6.53983732125324       -2.91045248147675
h           -4.33768237216248       -7.04300239587112       -2.16222986099464
h           -5.49383140339833       -6.11944729625553       -2.61015544153770
o          -12.01835156817271       -1.19658867408428        1.12839769111055
h          -12.49122858160050       -0.37760210606726        1.31545265995637
h          -12.15183321468837       -1.36512964254709        0.17831178455697
o            6.85275702822123       -2.85204851919509        2.28363095513154
h            6.59048680735389       -2.59505235193855        1.37537203489687
h            7.60850284420547       -3.45388152485903        2.21488985270904
o           -6.68926995968899        2.44600272566714       -2.67123359977091
h           -6.31956663198941        1.63644279507546       -2.25751880155378
h           -7.54890453543487        2.18391546278270       -3.04655171854988
o           -4.55463170783478        4.41347656213049       -6.60116904606298
h           -3.61066655401320        4.66310242827115       -6.53948842258564
h           -4.67327346092746        3.82889168356673       -5.83020602599062
o            3.04423159086530       -4.20794297319944        6.78945957689398
h            2.58044972259323       -3.77062905877230        7.51244806421693
h            2.52417392121468       -5.00721571624541        6.54983313342564
o           -9.01776279375869        2.76750417423923        4.90520096700987
h           -8.38242282160365        2.66896719388109        5.62330361738656
h           -9.43107317871295        1.89528000126123        4.78321135332746
o           -7.27647450221013        0.36586091975675        0.70994191043343
h           -7.66184831695605        1.09493318501515        0.20222050593853
h           -7.99249275328012       -0.28473751878309        0.79401640093343
o            6.84670210978309        4.55955045267823       -1.72843660174092
h            6.43076840337213        5.30658611817052       -1.26247175577158
h            7.56267765405714        4.92334011712713       -2.28235788474972
o           -1.32110712223150       -4.09748633044709        3.71704911904303
h           -0.35885730990633       -4.24594208577372        3.73060534818557
h           -1.48827592152217       -3.72566427954374        2.83612809977238
o           -8.62202043727451        2.21942958438774       -0.70962869976270
h           -9.33260100154845        2.87265640028358       -0.53809556917685
h           -8.82092026602112        1.84594058123880       -1.57985242982586
o            1.28438645963817       -2.80095688393530       -7.62510560986512
h            2.17481414442713       -3.18574574913610       -7.68496851871109
h            0.72484924745067       -3.52879560530888       -7.30732359214781
o           -2.21145718482745       -4.68891860717580       -3.60672361157888
h           -2.95133216798398       -4.35151007197969       -3.06289666423358
h           -2.22302263375428       -5.66093393049517       -3.53118093608739
o           -1.31671760493906       -2.82756931376669       -1.63567296964730
h           -1.36890609939712       -2.72142456971427       -0.67549839022911
h           -0.35972554832597       -2.84049491866719       -1.84239732836805
o            2.33309583984216        4.73068804700077       -2.57206849237122
h            1.71070219908629        3.98763161973937       -2.50976887705122
h            2.42475275943880        4.89963556292619       -3.52172547016447
o            3.12410931895424       -2.75441836655323        4.56167284118138
h            2.68025592603389       -1.89686515751428        4.52491520459160
h            2.99232142448143       -3.13968181360973        5.45083479238766
o           -4.29044411004504        5.13598433979866       -0.54313612700949
h           -4.51007060176873        4.71365520888066        0.30938748249587
h           -5.04260138346236        4.98478474982613       -1.15383445975059
o           -1.85854124427021       -5.33560558527823       -0.70906204731552
h           -1.88696600963286       -4.60476472238366       -1.35087542656994
h           -2.41553560069390       -6.05451201218010       -1.01785953886590
o           -3.19643121754441        3.49048588266294        4.04192154940238
h           -4.07587889575218        3.49083709763021        4.46520990813090
h           -2.83013466912842        4.36039885755510        4.25993522477597
o            0.30129546624665       -0.14819279835127        6.11337495751898
h            0.25527733731622        0.51992704316259        6.82688332672186
h           -0.42950845005121       -0.77517594948169        6.25616521677160
o           -3.91176424497796       -3.56609579054824        2.75137105733579
h           -3.38252440587912       -4.33428961457741        2.48768891089931
h           -4.68600448714631       -3.53576636406190        2.17538943517368
o           -9.21216888352198        1.63594535602186       -3.27990159320040
h           -9.80541977248197        2.35838817579566       -3.55049818419514
h           -9.20419231646201        0.99312785456038       -4.00918500623985
o           -5.95376777392693        5.99759102676132       -4.89954363473472
h           -5.43963546022663        5.60972750044572       -5.63507164409438
h           -5.47146202947358        6.77945968702169       -4.59807493600388
o           -7.69867356463948       -4.06706628986975       -4.53522694593503
h           -7.08152833889665       -4.55698489571638       -5.09420587747473
h           -7.39408428189852       -4.27775109192273       -3.62748613645263
o          -10.11793628208763        0.42105659893537        3.98721298977829
h          -10.45654515957220       -0.47917796524344        4.18746366449921
h          -10.30962760220300        0.60428375663609        3.04827937998952
o            2.59637601921574        4.88855827865400       -5.28260809089522
h            1.94399274214186        5.60813731719332       -5.34503732600340
h            2.64024627554595        4.41657850154257       -6.12709835414568
o            3.22306860957291        5.62021897007282       -0.04244666346194
h            2.78999722925245        4.74741445824904       -0.07840044682600
h            3.25020217345603        5.93758741082794       -0.96219153333090
o            0.47199773280964        2.82193681878907       -2.72570754281686
h           -0.07111096290262        2.03274244010811       -2.54375927739767
h            0.89117507641921        2.60207632888689       -3.58669321743719
o            0.14816122765421        3.49097040861783       -6.80013295120374
h            0.84940492459477        3.86528806558998       -7.34522676313159
h            0.61083499302834        3.13944492223158       -6.01269425125991
o            9.91431105257915       -1.00981079971273       -4.74900826610075
h            9.36039050657027       -0.52807837080648       -5.39222918612488
h           10.60930705769962       -0.37503124340589       -4.52358493721516
o            7.66349177000384       -2.92067871022822       -5.84487617932968
h            7.44387120307944       -2.12390730945001       -5.33234014028088
h            8.55116147064839       -3.18840582008898       -5.59139303804686
o           -6.80251534568268        2.26999990929617        6.80572180128492
h           -7.01201091254611        1.32065904017296        6.77744407930882
h           -5.96357662191686        2.35283394431087        7.27423850871777
o            9.67746740015312       -2.05808595545673        1.66091557140504
h           10.60429231466489       -2.37716858675343        1.68445221002136
h            9.20615290088043       -2.63156790355102        1.00909932087858
o            6.69409557704125       -0.20732584566491        2.84843949323035
h            6.96799225953008        0.00784669047213        3.75244358545939
h            7.01023129841146       -1.11159080856964        2.67296498581007
o            4.72789752985953        1.85890573003618        3.03167124803056
h            4.86629672001918        1.20189220699174        3.74648083321228
h            5.60068223568523        2.07059071109678        2.66025952848894
o           -5.13519280507175       -0.46533183052789       -6.21474418231418
h           -5.11199424002423        0.31156798919381       -6.80090861313162
h           -4.37268045941562       -1.01440801518634       -6.48333745059476
o           -9.31388626688493       -1.41687362944659        0.67484400328971
h          -10.24041531962408       -1.19307440011014        0.87507008651380
h           -9.27229681964332       -1.51825633554083       -0.28406577394532
o           -5.30249547045004       -0.91643095797643        1.88224337967092
h           -5.93842473705018       -0.27359396221653        1.51268882885723
h           -5.70718677650404       -1.78169997399928        1.71837782107406
o            0.61424913411151        6.05349002277495       -0.68828769794260
h            0.99116807414260        5.47881348539198       -1.36984009411043
h           -0.35669922960629        6.03898467312090       -0.80874931256664
o           -4.75323258660888       -1.08026923807598        7.16115161680960
h           -4.28528694892363       -0.84184975729567        7.96279600743539
h           -4.43499149983458       -0.43454307058433        6.46890328553421
o            9.12753370317428        1.19554211618087        2.79062220679423
h            9.76040424925842        1.92233410665138        2.64860780556987
h            9.40315026690339        0.72754253480099        3.57915003723701
o            2.32672040423378       -0.13284530077522        4.32610527813654
h            2.21678712283316        0.79012727529440        4.02521003155301
h            1.60241487003267       -0.25370441806180        4.96603894526563
o           11.40427681774448       -0.81605894708829       -1.80095913191208
h           10.75030607461829       -0.46091545753750       -1.14693037249106
h           11.39688921573003       -0.23391298029802       -2.56786506596116
o            6.40391217636400        0.65651618979030       -7.85548886039062
h            5.92744555416877       -0.13594517388735       -7.56654338719848
h            5.88570661184143        1.40012310180049       -7.49640427140538
o            4.23945594267589       -1.82700577329557       -3.70454318710342
h            4.03835281913341       -1.62003337539819       -2.76859402913787
h            5.05781665355065       -2.34998069757593       -3.63255965868164
o          -12.61037279914643        1.71590956310311       -3.75194430780550
h          -12.75457229266813        1.99994320495098       -2.83507965666987
h          -12.04921740610926        2.39986103764792       -4.13748688573611
o          -10.68427743714414        3.76150567151878       -4.14797067576361
h           -9.86583925657623        4.06225764861555       -4.58219268187776
h          -10.85359185023575        4.40559030006223       -3.45508503034714
o           -4.13427543663408        6.79782756861774        2.51296933965435
h           -5.05917565132474        7.14918048411991        2.51374357478236
h           -3.84094270394863        6.70666142047572        3.43720109730643
o           -2.00771284253005        6.44212445441858       -0.84169037831049
h           -2.77277935324963        5.84036201614811       -0.85981978672828
h           -2.26355094009464        7.17005330938337       -0.24020166841487
o            3.51571148082287       -4.06221947091929       -6.79322475934466
h            3.30449327301873       -5.01131500286482       -6.86156782510395
h            3.08365488730777       -3.79477280153194       -5.94643216990770
o           -6.66780266698108        7.38474297506521        2.38608584912571
h           -6.96513329779556        7.16843687423322        1.48460064906310
h           -7.07027201874112        6.71165024831282        2.96121879546697
o           -1.61544023242424        8.14723998132288       -2.86130251003649
h           -1.75038117350490        7.41532314662822       -2.21990547304392
h           -0.68938535414102        8.39578573866343       -2.75267737371457
o            5.77762834226836       -4.68710889874375       -5.42997458382283
h            6.45999538986050       -3.99543817151520       -5.59570738784696
h            5.08201823370512       -4.50862616690304       -6.08495463285591
o           -4.01889463163897        0.44706670322224       -3.95070804466469
h           -4.45854759324888        0.09742754306102       -4.75418077092123
h           -4.65865446898356        0.34935648698755       -3.22621853658108
o           -2.42558207746144        0.51284041562036        8.21162772834916
h           -2.29097479695030       -0.15561665396252        7.51429378494575
h           -1.56912909972104        0.94203949660037        8.33281771490554
o           -5.21779862960802       -4.85315900253803       -5.10242683721202
h           -4.96938463925516       -5.51965028310281       -4.44771286165405
h           -4.45027575861669       -4.76461991455267       -5.69735108141635
o           -4.09438736983491       -3.84304544425329       -1.79674563560313
h           -4.15223218196818       -4.57512960603301       -1.15581172106709
h           -3.95096171814137       -3.06006035349671       -1.23401716901140
o           -6.73635273522074        3.83983566335119        0.19995288344913
h           -7.08557335982133        3.72034961793688        1.09606429131048
h           -7.30685146949185        3.27493950846080       -0.35663791261200
o           -6.65697516018556       -4.80979830856104       -2.16242018517724
h           -5.86459768849995       -4.26275472261409       -2.00327430714192
h           -7.11203292296625       -4.94562905665929       -1.31653811405539
o            7.61286862690039       -0.05399614419020        5.46200895595078
h            7.07036611703224       -0.42844755964975        6.16912475604662
h            8.14180252952755       -0.79006023440030        5.09593397671433
o           -2.03701733291176        4.81439195963508       -5.83000023820956
h           -1.93716924487524        5.78456206602509       -5.67814157389881
h           -1.22881695639383        4.51432338307407       -6.27252528465351
o            4.93974298460520        2.42764013387042       -6.39433197145276
h            5.45951299648260        3.03355001685623       -5.82849503994938
h            4.55500073420051        1.78822020499438       -5.76440667039513
o          -12.29503947400246       -2.05390375804461       -1.47185584654531
h          -13.16603904619369       -2.33173855226827       -1.75164059008808
h          -11.92366288875735       -1.53031720642156       -2.21746504697005
o            3.31246229197963        3.96486834135127        2.30269708426241
h            2.47312093195129        4.39965842241237        2.04114943632837
h            3.91062949398306        4.67379193897951        2.58607773867156
o            0.04809588963758        1.85756781526056        7.86574847083914
h           -0.46226070681298        2.51028732660284        7.33344149732463
h            0.98574092804593        2.09147929345891        7.73572345360213
o           -2.03598140770784       -1.45000235347297        6.32594187579752
h           -2.36186905457291       -1.41049155833857        5.39870009512470
h           -2.04560260331503       -2.37473339977895        6.59473338386011
o            1.62817685984258       -6.34427257539715        6.01864562130792
h            0.71833868885453       -6.38747216168926        5.68694776798174
h            2.17085380069451       -6.83641818743699        5.39007089302523
o           -0.81893986482133        3.65874367185230       -0.12482717991867
h           -1.48297123011403        3.49258242276861       -0.82192717654415
h           -1.21677807361098        4.28736402153106        0.50341352309456
o            3.28839767651206       -0.51255963154637        7.11078988488185
h            4.18164258073967       -0.84914969991818        7.27414237522645
h            2.66264050256787       -1.12821324272755        7.52417001172954
o           -3.30916531798544       -7.87152034660351       -0.72986513498512
h           -4.10823561245009       -8.13797155098274       -0.26687128684073